
                                 *****************
                                 * O   R   C   A *
                                 *****************

                                            #,                                       
                                            ###                                      
                                            ####                                     
                                            #####                                    
                                            ######                                   
                                           ########,                                 
                                     ,,################,,,,,                         
                               ,,#################################,,                 
                          ,,##########################################,,             
                       ,#########################################, ''#####,          
                    ,#############################################,,   '####,        
                  ,##################################################,,,,####,       
                ,###########''''           ''''###############################       
              ,#####''   ,,,,##########,,,,          '''####'''          '####       
            ,##' ,,,,###########################,,,                        '##       
           ' ,,###''''                  '''############,,,                           
         ,,##''                                '''############,,,,        ,,,,,,###''
      ,#''                                            '''#######################'''  
     '                                                          ''''####''''         
             ,#######,   #######,   ,#######,      ##                                
            ,#'     '#,  ##    ##  ,#'     '#,    #''#        ,####,    ,#,          
            ##       ##  ##   ,#'  ##            #'  '#       #'       ,# #          
            ##       ##  #######   ##           ,######,      #####,      #          
            '#,     ,#'  ##    ##  '#,     ,#' ,#      #,     #,   #      #          
             '#######'   ##     ##  '#######'  #'      '#     '####' #    #          



                #########################################################
                #                        -***-                          #
                #          Department of theory and spectroscopy        #
                #                                                       #
                #                      Frank Neese                      #
                #                                                       #
                #     Directorship, Architecture, Infrastructure        #
                #                    SHARK, DRIVERS                     #
                #        Core code/Algorithms in most modules           #
                #                                                       #
                #        Max Planck Institute fuer Kohlenforschung      #
                #                Kaiser Wilhelm Platz 1                 #
                #                 D-45470 Muelheim/Ruhr                 #
                #                      Germany                          #
                #                                                       #
                #                  All rights reserved                  #
                #                        -***-                          #
                #########################################################


                         Program Version 6.1.0  -  RELEASE   -
                                (GIT: $679e74b$)
                          ($2025-06-10 18:02:51 +0200$)


 With contributions from (in alphabetic order):
[Max-Planck-Institut fuer Kohlenforschung]                               
  Daniel Aravena         : Magnetic Suceptibility                        
  Michael Atanasov       : Ab Initio Ligand Field Theory (pilot matlab implementation)
  Alexander A. Auer      : GIAO ZORA, VPT2 properties, NMR spectrum      
  Ute Becker             : All parallelization in ORCA, NUMFREQ, NUMCALC 
  Giovanni Bistoni       : ED, misc. LED, open-shell LED, HFLD           
  Dmytro Bykov           : pre 5.0 version of the SCF Hessian            
  Marcos Casanova-Páez   : Triplet and SCS-CIS(D). UHF-(DLPNO)-IP/EA/STEOM-CCSD. UHF-CVS-IP/STEOM-CCSD   
  Vijay G. Chilkuri      : MRCI spin determinant printing, contributions to CSF-ICE 
  Pauline Colinet        : FMM embedding                                 
  Dipayan Datta          : RHF DLPNO-CCSD density                        
  Achintya Kumar Dutta   : EOM-CC, STEOM-CC                              
  Nicolas Foglia         : Exact transition moments, OPA infrastructure, MCD improvements    
  Dmitry Ganyushin       : Spin-Orbit,Spin-Spin,Magnetic field MRCI      
  Miquel Garcia-Rates    : C-PCM and meta-GGA Hessian, CCSD/C-PCM, Gaussian charge scheme 
  Tiago L. C. Gouveia    : GS-ROHF, GS-ROCIS                             
  Yang Guo               : DLPNO-NEVPT2, F12-NEVPT2, CIM, IAO-localization        
  Andreas Hansen         : Spin unrestricted coupled pair/coupled cluster methods 
  Ingolf Harden          : AUTO-CI MPn and infrastructure                
  Benjamin Helmich-Paris : MC-RPA, TRAH-(SCF,CASSCF), AVAS, COSX integrals, SCF dyn. polar., MC-PDFT, srDFT 
  Lee Huntington         : MR-EOM, pCC                                   
  Robert Izsak           : Overlap fitted RIJCOSX, COSX-SCS-MP3, EOM     
  Riya Kayal             : Wick's Theorem for AUTO-CI, AUTO-CI UHF-CCSDT 
  Emily Kempfer          : AUTO-CI RHF CISDT and CCSDT, approximate NEVPT4
  Christian Kollmar      : KDIIS, OOCD, Brueckner-CCSD(T), CCSD density, CASPT2, CASPT2-K, improved NEVPT2 
  Axel Koslowski         : Symmetry handling                             
  Simone Kossmann        : meta-GGA functionals, TD-DFT gradient, OOMP2, (MP2 Hessian; deprecated post 5.0) 
  Lucas Lang             : DCDCAS, Hyperfine gauge corrections, ICE-SOC+SSC
  Marvin Lechner         : AUTO-CI (C++ implementation), FIC-MRCC        
  Spencer Leger          : CASSCF response                               
  Dagmar Lenk            : GEPOL surface, SMD, ORCA-2-JSON               
  Dimitrios Liakos       : Extrapolation schemes; Compound Job, Property file
  Dimitrios Manganas     : Further ROCIS development; embedding schemes. LFT, Crystal Embedding 
  Dimitrios Pantazis     : SARC Basis sets                               
  Anastasios Papadopoulos: AUTO-CI, single reference methods and gradients 
  Taras Petrenko         : pre 6.0 DFT Hessian and TD-DFT gradient,  ECA, NRVS 
  Petra Pikulova         : Analytic Raman intensities                    
  Peter Pinski           : DLPNO-MP2, DLPNO-MP2 Gradient                 
  Shashank Vittal Rao    : ES-AILFT, MagRelax                            
  Christoph Reimann      : Effective Core Potentials                     
  Marius Retegan         : Local ZFS, SOC                                
  Christoph Riplinger    : Optimizer, TS searches, QM/MM, DLPNO-CCSD(T), (RO)-DLPNO pert. Triples 
  Michael Roemelt        : Original ROCIS implementation, recursive CI coupling coefficients
  Masaaki Saitow         : Open-shell DLPNO-CCSD energy and density      
  Barbara Sandhoefer     : DKH picture change effects                    
  Yorick L. A. Schmerwitz: GMF and freeze-and-release deltaSCF, NEB S-IDPP initial path                    
  Kantharuban Sivalingam : CASSCF convergence/infrastructure, NEVPT2, NEVPT3, NEVPT4(SD), FIC-MRCI and CEPA variants
  Bernardo de Souza      : ESD, SOC TD-DFT                               
  Georgi L. Stoychev     : AutoAux, RI-MP2 NMR, DLPNO-MP2 response, X2C  
  Van Anh Tran           : RI-MP2 g-tensors                              
  Willem Van den Heuvel  : Paramagnetic NMR                              
  Zikuan Wang            : NOTCH, Electric field optimization            
  Frank Wennmohs         : Technical directorship and infrastructure     
  Hang Xu                : AUTO-CI-Response properties                   
                                                                         
[FACCTs GmbH]                                                            
  Markus Bursch, Nicolas Foglia, Miquel Garcia-Rates, Ingolf Harden, Hagen Neugebauer, Anastasios Papadopoulos, 
  Christoph Riplinger, Bernardo de Souza, Georgi L. Stoychev                                                    
                                                                 
  APM, various basis sets, CI-OPT, improved COSX, DLPNO-Multilevel,           
  DOCKER, DRACO, updates on ESD, Fragmentator, GOAT, IRC, LR-CPCM, L-BFGS, MBIS, meta-GGA TD-DFT gradient, ML-optimized integration grids, 
  MM, NACMEs, nearIR, NEB, NEB-TS, NL-DFT gradient (VV10), 2- and 3-layer-ONIOM, interface openCOSMO-RS, QMMM,   
  Crystal-QMMM, RESP, rigid body optimization, SF, symmetry and pop. for TD-DFT, various functionals, SOLVATOR                                   
                                                                         
[Other institutions]                                                     
  V. Asgeirsson          : NEB                                           
  Christoph Bannwarth    : sTDA-DFT, sTD-DFT, PBEh-3c, B97-3c, D3        
  Giovanni Bistoni       : ETS/NOCV, ADLD/ADEX, COVALED                  
  Martin Brehm           : Molecular dynamics                            
  Ronald Cardenas        : ETS/NOCV                                      
  Martina Colucci        : COVALED                                       
  Sebastian Ehlert       : rSCAN, r2SCAN, r2SCAN-3c, D4, dhf basis sets  
  Marvin Friede          : D4 for Fr, Ra, Ac-Lr                          
  Lars Goerigk           : TD-DFT with DH, B97 family of functionals     
  Stefan Grimme          : VdW corrections, initial TS optimization, DFT functionals, gCP, sTDA/sTD-DF 
  Waldemar Hujo          : DFT-NL                                        
  H. Jonsson             : NEB                                           
  Holger Kruse           : gCP                                           
  Marcel Mueller         : wB97X-3c, vDZP basis set                      
  Hagen Neugebauer       : wr2SCAN, Native XTB                           
  Gianluca Regni         : ADLD/ADEX                                     
  Tobias Risthaus        : pre 6.0 range-separated hybrid DFT and stability analysis
  Lukas Wittmann         : regularized MP2, r2SCAN double-hybrids, wr2SCAN        
                                                                         
We gratefully acknowledge several colleagues who have allowed us to      
interface, adapt or use parts of their codes:                            
  Ed Valeev, F. Pavosevic, A. Kumar             : LibInt (2-el integral package), F12 methods 
  Garnet Chan, S. Sharma, J. Yang, R. Olivares  : DMRG                   
  Ulf Ekstrom                                   : XCFun DFT Library      
  Mihaly Kallay                                 : mrcc  (arbitrary order and MRCC methods)
  Frank Weinhold                                : gennbo (NPA and NBO analysis)           
  Simon Mueller                                 : openCOSMO-RS                            
  Christopher J. Cramer and Donald G. Truhlar   : smd solvation model                     
  S Lehtola, MJT Oliveira, MAL Marques          : LibXC Library                           
  Liviu Ungur et al                             : ANISO software                          


 Your calculation uses the libint2 library for the computation of 2-el integrals
 For citations please refer to: http://libint.valeyev.net

 Your ORCA version has been built with support for libXC version: 7.0.0
 For citations please refer to: https://libxc.gitlab.io

 This ORCA versions uses:
   CBLAS   interface :  Fast vector & matrix operations
   LAPACKE interface :  Fast linear algebra routines
   SCALAPACK package :  Parallel linear algebra routines
   Shared memory     :  Shared parallel matrices
   BLAS/LAPACK       :  OpenBLAS 0.3.29  USE64BITINT DYNAMIC_ARCH NO_AFFINITY Haswell SINGLE_THREADED
        Core in use  :  Haswell
   Copyright (c) 2011-2014, The OpenBLAS Project


  ***********************************
  * Starting time: Mon Dec  1 21:45:53 2025
  * Host name:     akhils-Latitude-7450
  * Process ID:    45119
  * Working dir.:  /home/akhils/learning/orca_tutorial/dec_1
  ***********************************



***************************************
The coordinates will be read from file: glycine.xyz
***************************************


================================================================================

----- Orbital basis set information -----
Your calculation utilizes the basis: def2-SVP
   F. Weigend and R. Ahlrichs, Phys. Chem. Chem. Phys. 7, 3297 (2005).

================================================================================
                                        WARNINGS
                       Please study these warnings very carefully!
================================================================================


WARNING: Geometry Optimization
  ===> : Switching off AutoStart
         For restart on a previous wavefunction, please use MOREAD

================================================================================
                                       INPUT FILE
================================================================================
NAME = glycine.inp
|  1> ! HF def2-SVP Opt Freq TightSCF
|  2> %output
|  3> Print[P_MOs] 1
|  4> end
|  5> * xyzfile 0 1 glycine.xyz
|  6> 
|  7>                          ****END OF INPUT****
================================================================================

                       *****************************
                       * Geometry Optimization Run *
                       *****************************

Geometry optimization settings:
Update method            Update   .... BFGS
Choice of coordinates    CoordSys .... (2022) Redundant Internals
Initial Hessian          InHess   .... Almloef's Model
Max. no of cycles        MaxIter  .... 50

Convergence Tolerances:
Energy Change            TolE     ....  5.0000e-06 Eh
Max. Gradient            TolMAXG  ....  3.0000e-04 Eh/bohr
RMS Gradient             TolRMSG  ....  1.0000e-04 Eh/bohr
Max. Displacement        TolMAXD  ....  4.0000e-03 bohr
RMS Displacement         TolRMSD  ....  2.0000e-03 bohr
Strict Convergence                .... False

------------------------------------------------------------------------------
                        ORCA OPTIMIZATION COORDINATE SETUP
------------------------------------------------------------------------------

The optimization will be done in redundant internal coordinates (2022)
Making redundant internal coordinates   ...  (2022 redundants) done
Evaluating the initial hessian          ...  (Almloef) done
Evaluating the coordinates              ...  done
Calculating the B-matrix                .... done
Calculating the G-matrix                .... done
The number of degrees of freedom        ....   39

    -----------------------------------------------------------------
                    Redundant Internal Coordinates


    -----------------------------------------------------------------
         Definition                    Initial Value    Approx d2E/dq
    -----------------------------------------------------------------
      1. B(H   1,N   0)                  1.0296         0.402702   
      2. B(H   2,N   0)                  1.0296         0.402702   
      3. B(C   3,N   0)                  1.4500         0.448900   
      4. B(H   4,C   3)                  0.9500         0.602260   
      5. B(H   5,C   3)                  0.9500         0.602260   
      6. B(C   6,C   3)                  1.5200         0.387554   
      7. B(O   7,C   6)                  1.2200         1.044960   
      8. B(O   8,O   7)                  1.7828         0.118390   
      9. B(O   8,C   6)                  1.3000         0.778870   
     10. B(H   9,O   8)                  0.7267         1.225108   
     11. A(H   2,N   0,C   3)          119.0546         0.335618   
     12. A(H   1,N   0,C   3)          119.0546         0.335618   
     13. A(H   1,N   0,H   2)          121.8908         0.296399   
     14. A(H   4,C   3,C   6)           90.0000         0.355577   
     15. A(N   0,C   3,H   5)           90.0000         0.362325   
     16. A(H   5,C   3,C   6)           90.0000         0.355577   
     17. A(N   0,C   3,H   4)           90.0000         0.362325   
     18. A(O   7,C   6,O   8)           90.0000         0.491218   
     19. A(C   3,C   6,O   8)           90.0000         0.413005   
     20. A(C   6,O   7,O   8)           46.8183         0.349389   
     21. A(O   7,O   8,H   9)          171.1644         0.321657   
     22. A(C   6,O   8,H   9)          145.6539         0.448380   
     23. A(C   6,O   8,O   7)           43.1817         0.332632   
     24. D(H   4,C   3,N   0,H   1)      0.0000         0.017189   
     25. D(H   5,C   3,N   0,H   1)    180.0000         0.017189   
     26. D(H   5,C   3,N   0,H   2)      0.0000         0.017189   
     27. D(H   4,C   3,N   0,H   2)    180.0000         0.017189   
     28. D(O   8,C   6,N   0,H   2)    180.0000         0.010000   
     29. D(O   8,C   6,C   3,H   4)      0.0000         0.011182   
     30. D(O   8,C   6,N   0,H   1)      0.0000         0.010000   
     31. D(O   8,C   6,C   3,H   5)    180.0000         0.011182   
     32. D(O   8,O   7,C   3,H   5)    180.0000         0.010000   
     33. D(O   8,O   7,C   3,H   4)      0.0000         0.010000   
     34. D(O   8,O   7,N   0,H   2)    180.0000         0.010000   
     35. D(O   8,O   7,N   0,H   1)      0.0000         0.010000   
     36. D(H   9,O   8,C   6,O   7)    180.0000         0.051387   
     37. D(H   9,O   8,C   6,C   3)      0.0000         0.051387   
     38. D(O   7,O   8,C   6,C   3)    180.0000         0.051387   
     39. D(H   9,O   8,O   7,C   6)    180.0000         0.010000   
    -----------------------------------------------------------------

Number of atoms                         .... 10
Number of degrees of freedom            .... 39


         *************************************************************
         *                GEOMETRY OPTIMIZATION CYCLE   1            *
         *************************************************************
---------------------------------
CARTESIAN COORDINATES (ANGSTROEM)
---------------------------------
  N     -1.450000    0.000000    0.000000
  H     -1.950000    0.900000    0.000000
  H     -1.950000   -0.900000    0.000000
  C      0.000000    0.000000    0.000000
  H      0.000000    0.950000    0.000000
  H      0.000000   -0.950000    0.000000
  C      1.520000    0.000000    0.000000
  O      2.740000    0.000000    0.000000
  O      1.520000    1.300000    0.000000
  H      1.110000    1.900000    0.000000

----------------------------
CARTESIAN COORDINATES (A.U.)
----------------------------
  NO LB      ZA    FRAG     MASS         X           Y           Z
   0 N     7.0000    0    14.007   -2.740103    0.000000    0.000000
   1 H     1.0000    0     1.008   -3.684966    1.700754    0.000000
   2 H     1.0000    0     1.008   -3.684966   -1.700754    0.000000
   3 C     6.0000    0    12.011    0.000000    0.000000    0.000000
   4 H     1.0000    0     1.008    0.000000    1.795240    0.000000
   5 H     1.0000    0     1.008    0.000000   -1.795240    0.000000
   6 C     6.0000    0    12.011    2.872384    0.000000    0.000000
   7 O     8.0000    0    15.999    5.177850    0.000000    0.000000
   8 O     8.0000    0    15.999    2.872384    2.456644    0.000000
   9 H     1.0000    0     1.008    2.097596    3.590480    0.000000

--------------------------------
INTERNAL COORDINATES (ANGSTROEM)
--------------------------------
 N      0   0   0     0.000000000000     0.00000000     0.00000000
 H      1   0   0     1.029563014099     0.00000000     0.00000000
 H      1   2   0     1.029563014099   121.89079180     0.00000000
 C      1   2   3     1.450000000000   119.05460410   180.00000000
 H      4   1   2     0.950000000000    90.00000000     0.00000000
 H      4   1   2     0.950000000000    90.00000000   180.00000085
 C      4   1   2     1.520000000000   180.00000000     0.00000000
 O      7   4   5     1.220000000000   179.99999915     0.00000000
 O      7   4   5     1.300000000000    90.00000000     0.00000000
 H      9   7   4     0.726704891961   145.65390260     0.00000000

---------------------------
INTERNAL COORDINATES (A.U.)
---------------------------
 N      0   0   0     0.000000000000     0.00000000     0.00000000
 H      1   0   0     1.945592134261     0.00000000     0.00000000
 H      1   2   0     1.945592134261   121.89079180     0.00000000
 C      1   2   3     2.740102894186   119.05460410   180.00000000
 H      4   1   2     1.795239827225    90.00000000     0.00000000
 H      4   1   2     1.795239827225    90.00000000   180.00000085
 C      4   1   2     2.872383723560   180.00000000     0.00000000
 O      7   4   5     2.305465883384   179.99999915     0.00000000
 O      7   4   5     2.456643974098    90.00000000     0.00000000
 H      9   7   4     1.373273225987   145.65390260     0.00000000

---------------------
BASIS SET INFORMATION
---------------------
There are 4 groups of distinct atoms

 Group   1 Type N   : 7s4p1d contracted to 3s2p1d pattern {511/31/1}
 Group   2 Type H   : 4s1p contracted to 2s1p pattern {31/1}
 Group   3 Type C   : 7s4p1d contracted to 3s2p1d pattern {511/31/1}
 Group   4 Type O   : 7s4p1d contracted to 3s2p1d pattern {511/31/1}

Atom   0N    basis set group =>   1
Atom   1H    basis set group =>   2
Atom   2H    basis set group =>   2
Atom   3C    basis set group =>   3
Atom   4H    basis set group =>   2
Atom   5H    basis set group =>   2
Atom   6C    basis set group =>   3
Atom   7O    basis set group =>   4
Atom   8O    basis set group =>   4
Atom   9H    basis set group =>   2
------------------------------------------------------------------------------
                             ORCA STARTUP CALCULATIONS
------------------------------------------------------------------------------
------------------------------------------------------------------------------
                   ___                                                        
                  /   \      - P O W E R E D   B Y -                         
                 /     \                                                     
                 |  |  |   _    _      __       _____    __    __             
                 |  |  |  | |  | |    /  \     |  _  \  |  |  /  |          
                  \  \/   | |  | |   /    \    | | | |  |  | /  /          
                 / \  \   | |__| |  /  /\  \   | |_| |  |  |/  /          
                |  |  |   |  __  | /  /__\  \  |    /   |      \           
                |  |  |   | |  | | |   __   |  |    \   |  |\   \          
                \     /   | |  | | |  |  |  |  | |\  \  |  | \   \       
                 \___/    |_|  |_| |__|  |__|  |_| \__\ |__|  \__/        
                                                                              
                      - O R C A' S   B I G   F R I E N D -                    
                                      &                                       
                       - I N T E G R A L  F E E D E R -                       
                                                                              
 v1 FN, 2020, v2 2021, v3 2022-2024                                           
------------------------------------------------------------------------------


----------------------
SHARK INTEGRAL PACKAGE
----------------------

Number of atoms                             ...     10
Number of basis functions                   ...     95
Number of shells                            ...     45
Maximum angular momentum                    ...      2
Integral batch strategy                     ... SHARK/LIBINT Hybrid
RI-J (if used) integral strategy            ... SPLIT-RIJ (Revised 2003 algorithm where possible)
Printlevel                                  ...      1
Contraction scheme used                     ... SEGMENTED contraction
Prescreening option                         ... SCHWARTZ
   Thresh                                   ... 2.500e-11
   Tcut                                     ... 2.500e-12
   Tpresel                                  ... 2.500e-12 
Coulomb Range Separation                    ... NOT USED
Exchange Range Separation                   ... NOT USED
Multipole approximations                    ... NOT USED
Finite Nucleus Model                        ... NOT USED
CABS basis                                  ... NOT available
Auxiliary Coulomb fitting basis             ... NOT available
Auxiliary J/K fitting basis                 ... NOT available
Auxiliary Correlation fitting basis         ... NOT available
Auxiliary 'external' fitting basis          ... NOT available

Checking pre-screening integrals            ... done (  0.0 sec) Dimension = 45
   => SHARK Basis and OBASIS are compatible. Storing Pre-screening
Shell pair information
Shell pair cut-off parameter TPreSel        ...   2.5e-12
Total number of shell pairs                 ...      1035
Shell pairs after pre-screening             ...      1003
Total number of primitive shell pairs       ...      3735
Primitive shell pairs kept                  ...      2912
          la=0 lb=0:    314 shell pairs
          la=1 lb=0:    364 shell pairs
          la=1 lb=1:    118 shell pairs
          la=2 lb=0:    121 shell pairs
          la=2 lb=1:     72 shell pairs
          la=2 lb=2:     14 shell pairs

Checking whether 4 symmetric matrices of dimension 95 fit in memory
:Max Core in MB      =   4096.00
 MB in use           =      2.51
 MB left             =   4093.49
 MB needed           =      0.14
 Data fit in memory  = YES
Calculating Nuclear repulsion               ... done (  0.0 sec) ENN=    184.606444401900 Eh

Diagonalization of the overlap matrix:
Smallest eigenvalue                        ... 6.908e-04
Time for diagonalization                   ...    0.002 sec
Threshold for overlap eigenvalues          ... 1.000e-07
Number of eigenvalues below threshold      ... 0
Time for construction of square roots      ...    0.000 sec
Total time needed                          ...    0.002 sec

-------------------
DFT GRID GENERATION
-------------------

General Integration Accuracy     IntAcc      ... 4.388
Radial Grid Type                 RadialGrid  ... OptM3 with GC (2021)
Angular Grid (max. ang.)         AngularGrid ... 4 (Lebedev-302)
Angular grid pruning method      GridPruning ... 4 (adaptive)
Weight generation scheme         WeightScheme... mBecke (2022)
Basis function cutoff            BFCut       ... 1.0000e-11
Integration weight cutoff        WCut        ... 1.0000e-14
Partially contracted basis set               ... off
Rotationally invariant grid construction     ... off
Angular grids for H and He will be reduced by one unit

Total number of grid points                  ...    46417
Total number of batches                      ...      731
Average number of points per batch           ...       63
Average number of grid points per atom       ...     4642
Grids setup in   0.2 sec
Initializing property integral containers    ... done (  0.0 sec)

SHARK setup successfully completed in   0.2 seconds

Maximum memory used throughout the entire STARTUP-calculation: 17.5 MB
-------------------------------------------------------------------------------
                                 ORCA GUESS
                   Start orbitals & Density for SCF / CASSCF
-------------------------------------------------------------------------------

------------
SCF SETTINGS
------------
Hamiltonian:
 Ab initio Hamiltonian  Method          .... Hartree-Fock(GTOs)


General Settings:
 Integral files         IntName         .... glycine
 Hartree-Fock type      HFTyp           .... RHF
 Total Charge           Charge          ....    0
 Multiplicity           Mult            ....    1
 Number of Electrons    NEL             ....   40
 Basis Dimension        Dim             ....   95
 Nuclear Repulsion      ENuc            ....    184.6064444019 Eh

Convergence Acceleration:
 AO-DIIS                CNVDIIS         .... on
   Start iteration      DIISMaxIt       ....    12
   Startup error        DIISStart       ....  0.200000
   # of expansion vecs  DIISMaxEq       ....     5
   Bias factor          DIISBfac        ....   1.050
   Max. coefficient     DIISMaxC        ....  10.000
 MO-DIIS                CNVKDIIS        .... off
 Trust-Rad. Augm. Hess. CNVTRAH         .... auto
   Auto Start mean grad. ratio tolernc. ....  1.125000
   Auto Start start iteration           ....    50
   Auto Start num. interpolation iter.  ....    10
   Max. Number of Micro iterations      ....    24
   Max. Number of Macro iterations      .... Maxiter - #DIIS iter
   Number of Davidson start vectors     ....     2
   Converg. threshold    (grad. norm)   ....   1.000e-05
   Grad. Scal. Fac. for Micro threshold ....   0.100
   Minimum threshold for Micro iter.    ....   1.000e-02
   NR start threshold (gradient norm)   ....   1.000e-04
   Initial trust radius                 ....   0.400
   Minimum AH scaling param. (alpha)    ....   1.000
   Maximum AH scaling param. (alpha)    .... 1000.000
   Quad. conv. algorithm                .... NR
   White noise on init. David. guess    .... on
   Maximum white noise                  ....   0.010
   Pseudo random numbers                .... off
   Inactive MOs                         .... canonical
   Orbital update algorithm             .... Taylor
   Preconditioner                       .... Diag
   Full preconditioner red. dimension   ....   250
 SOSCF                 CNVSOSCF           .... on
   Start iteration     SOSCFMaxIt         ....   150
   Startup grad/error  SOSCFStart         ....  0.003300
   Hessian update      SOSCFHessUp        .... L-BFGS
   Autom. constraints  SOSCFAutoConstrain .... off
 Level Shifting         CNVShift        .... on
   Level shift para.    LevelShift      ....    0.2500
   Turn off err/grad.   ShiftErr        ....    0.0010
 Zerner damping         CNVZerner       .... off
 Static damping         CNVDamp         .... on
   Fraction old density DampFac         ....    0.7000
   Max. Damping (<1)    DampMax         ....    0.9800
   Min. Damping (>=0)   DampMin         ....    0.0000
   Turn off err/grad.   DampErr         ....    0.1000

SCF Procedure:
 Maximum # iterations   MaxIter         ....   125
 SCF integral mode      SCFMode         .... Direct
   Integral package                     .... SHARK and LIBINT hybrid scheme
 Reset frequency        DirectResetFreq ....    20
 Integral Threshold     Thresh          ....  2.500e-11 Eh
 Primitive CutOff       TCut            ....  2.500e-12 Eh

Convergence Tolerance:
 Convergence Check Mode ConvCheckMode   .... Total+1el-Energy
 Convergence forced     ConvForced      .... 0
 Energy Change          TolE            ....  1.000e-08 Eh
 1-El. energy change                    ....  1.000e-05 Eh
 Orbital Gradient       TolG            ....  1.000e-05
 Orbital Rotation angle TolX            ....  1.000e-05
 DIIS Error             TolErr          ....  5.000e-07

------------------------------
INITIAL GUESS: MODEL POTENTIAL
------------------------------
Loading Hartree-Fock densities                     ... done
Calculating cut-offs                               ... done
Initializing the effective Hamiltonian             ... done
Setting up the integral package (SHARK)            ... done
Starting the Coulomb interaction                   ... done (   0.0 sec)
Making the grid                                    ... done (   0.0 sec)
Mapping shells                                     ... done
Starting the XC term evaluation                    ... done (   0.0 sec)
Transforming the Hamiltonian                       ... done (   0.0 sec)
Diagonalizing the Hamiltonian                      ... done (   0.0 sec)
Back transforming the eigenvectors                 ... done (   0.0 sec)
Now organizing SCF variables                       ... done
                      ------------------
                      INITIAL GUESS DONE (   0.1 sec)
                      ------------------
             **** ENERGY FILE WAS UPDATED (glycine.en.tmp) ****
Finished Guess after   0.1 sec
Maximum memory used throughout the entire GUESS-calculation: 6.1 MB

-------------------------------------------------------------------------------------------
                                      ORCA LEAN-SCF
                              memory conserving SCF solver
-------------------------------------------------------------------------------------------

----------------------------------------D-I-I-S--------------------------------------------
Iteration    Energy (Eh)           Delta-E    RMSDP     MaxDP     DIISErr   Damp  Time(sec)
-------------------------------------------------------------------------------------------
               ***  Starting incremental Fock matrix formation  ***
    1    -281.5943567388835049     0.00e+00  5.36e-03  7.10e-02  2.99e-01  0.700   0.2
    2    -281.7097317891932562    -1.15e-01  3.90e-03  5.39e-02  1.81e-01  0.700   0.2
                               ***Turning on AO-DIIS***
    3    -281.7731242642132656    -6.34e-02  1.88e-03  3.22e-02  9.87e-02  0.700   0.2
    4    -281.8123708335176048    -3.92e-02  4.01e-03  6.79e-02  6.48e-02  0.000   0.2
    5    -281.8989450101477132    -8.66e-02  5.99e-04  1.24e-02  8.06e-03  0.000   0.2
    6    -281.8993873426197183    -4.42e-04  3.02e-04  3.87e-03  4.36e-03  0.000   0.2
                              *** Initializing SOSCF ***
---------------------------------------S-O-S-C-F--------------------------------------
Iteration    Energy (Eh)           Delta-E    RMSDP     MaxDP     MaxGrad    Time(sec)
--------------------------------------------------------------------------------------
    7    -281.8995149314100672    -1.28e-04  2.11e-04  3.09e-03  2.60e-03     0.2
               *** Restarting incremental Fock matrix formation ***
    8    -281.8995689671728542    -5.40e-05  1.19e-04  1.22e-03  7.89e-04     0.2
    9    -281.8995823771039682    -1.34e-05  1.69e-04  1.87e-03  3.81e-04     0.2
   10    -281.8995879265584676    -5.55e-06  3.80e-05  6.64e-04  2.22e-04     0.2
   11    -281.8995891392047497    -1.21e-06  1.30e-05  2.43e-04  7.44e-05     0.2
   12    -281.8995892738052476    -1.35e-07  1.63e-05  3.11e-04  4.33e-05     0.2
   13    -281.8995893601284592    -8.63e-08  7.18e-06  1.28e-04  2.63e-05     0.2
   14    -281.8995893759188789    -1.58e-08  2.61e-06  3.93e-05  1.10e-05     0.2
   15    -281.8995893794787548    -3.56e-09  1.05e-06  1.32e-05  5.59e-06     0.2
                 **** Energy Check signals convergence ****

               *****************************************************
               *                     SUCCESS                       *
               *           SCF CONVERGED AFTER  15 CYCLES          *
               *****************************************************

             **** ENERGY FILE WAS UPDATED (glycine.en.tmp) ****

----------------
TOTAL SCF ENERGY
----------------

Total Energy       :       -281.89958937992952 Eh           -7670.87781 eV

Components:
Nuclear Repulsion  :        184.60644440190015 Eh            5023.39674 eV
Electronic Energy  :       -466.50603378182967 Eh          -12694.27454 eV
One Electron Energy:       -751.16903620046878 Eh          -20440.34864 eV
Two Electron Energy:        284.66300241863911 Eh            7746.07410 eV

Virial components:
Potential Energy   :       -564.87855197518525 Eh          -15371.12685 eV
Kinetic Energy     :        282.97896259525578 Eh            7700.24905 eV
Virial Ratio       :          1.99618567682407

---------------
SCF CONVERGENCE
---------------

  Last Energy change         ...    3.5599e-09  Tolerance :   1.0000e-08
  Last MAX-Density change    ...    1.3185e-05  Tolerance :   1.0000e-07
  Last RMS-Density change    ...    1.0462e-06  Tolerance :   5.0000e-09
  Last DIIS Error            ...    2.6004e-03  Tolerance :   5.0000e-07
  Last Orbital Gradient      ...    5.5914e-06  Tolerance :   1.0000e-05
  Last Orbital Rotation      ...    1.7945e-05  Tolerance :   1.0000e-05


----------------
ORBITAL ENERGIES
----------------

  NO   OCC          E(Eh)            E(eV) 
   0   2.0000     -20.531643      -558.6944 
   1   2.0000     -20.505270      -557.9768 
   2   2.0000     -15.614775      -424.8996 
   3   2.0000     -11.440715      -311.3177 
   4   2.0000     -11.227633      -305.5194 
   5   2.0000      -1.513150       -41.1749 
   6   2.0000      -1.333534       -36.2873 
   7   2.0000      -1.215170       -33.0665 
   8   2.0000      -1.024295       -27.8725 
   9   2.0000      -0.902600       -24.5610 
  10   2.0000      -0.813866       -22.1464 
  11   2.0000      -0.717202       -19.5161 
  12   2.0000      -0.669807       -18.2264 
  13   2.0000      -0.653701       -17.7881 
  14   2.0000      -0.630429       -17.1548 
  15   2.0000      -0.509049       -13.8519 
  16   2.0000      -0.479724       -13.0540 
  17   2.0000      -0.458927       -12.4880 
  18   2.0000      -0.400439       -10.8965 
  19   2.0000      -0.279587        -7.6079 
  20   0.0000       0.004965         0.1351 
  21   0.0000       0.168366         4.5815 
  22   0.0000       0.186431         5.0730 
  23   0.0000       0.212006         5.7690 
  24   0.0000       0.214085         5.8255 
  25   0.0000       0.255707         6.9581 
  26   0.0000       0.324736         8.8365 
  27   0.0000       0.392407        10.6779 
  28   0.0000       0.429006        11.6739 
  29   0.0000       0.578204        15.7337 
  30   0.0000       0.656325        17.8595 
*Only the first 10 virtual orbitals were printed.
------------------
MOLECULAR ORBITALS (RHF, ROHF)
------------------
                      0         1         2         3         4         5   
                 -20.53164 -20.50527 -15.61478 -11.44072 -11.22763  -1.51315
                   2.00000   2.00000   2.00000   2.00000   2.00000   2.00000
                  --------  --------  --------  --------  --------  --------
  0N   1s        -0.000078  0.000018 -0.990301  0.000078 -0.000017  0.005976
  0N   2s        -0.001406  0.000378  0.037582  0.000452 -0.001082  0.011807
  0N   3s         0.016717 -0.002536 -0.034078  0.002149  0.015238  0.003637
  0N   1pz        0.000000  0.000000  0.000000  0.000000 -0.000000  0.000000
  0N   1px        0.000220 -0.000049 -0.000535 -0.000313 -0.000372 -0.004769
  0N   1py        0.000002  0.000019  0.000008  0.000013  0.000014 -0.001063
  0N   2pz        0.000000  0.000000 -0.000000  0.000000 -0.000000 -0.000000
  0N   2px        0.006638 -0.000979 -0.010333  0.000154  0.009470  0.002450
  0N   2py        0.000187  0.000443  0.000076 -0.000110 -0.000180 -0.000757
  0N   1dz2      -0.000112  0.000064 -0.000719 -0.000137 -0.000935 -0.000349
  0N   1dxz      -0.000000 -0.000000  0.000000 -0.000000  0.000000 -0.000000
  0N   1dyz       0.000000  0.000000 -0.000000  0.000000 -0.000000 -0.000000
  0N   1dx2y2     0.000044 -0.000021 -0.000846  0.000211  0.001032  0.000598
  0N   1dxy       0.000000 -0.000037  0.000010 -0.000015 -0.000036  0.000064
  1H   1s        -0.000207 -0.000066 -0.001688  0.000009 -0.000102  0.002653
  1H   2s        -0.000005 -0.000080  0.002090 -0.000179  0.001037  0.002345
  1H   1pz        0.000000 -0.000000  0.000000 -0.000000  0.000000  0.000000
  1H   1px       -0.000120  0.000043 -0.000561  0.000043 -0.000624  0.000546
  1H   1py       -0.000053  0.000016  0.002204  0.000068 -0.000178 -0.000395
  2H   1s        -0.000134  0.000219 -0.001642  0.000077 -0.000126  0.001910
  2H   2s         0.000267  0.000290  0.002135 -0.000765  0.000591 -0.000103
  2H   1pz        0.000000 -0.000000  0.000000 -0.000000  0.000000 -0.000000
  2H   1px       -0.000089  0.000099 -0.000558 -0.000016 -0.000680  0.000197
  2H   1py        0.000066  0.000022 -0.002202 -0.000079  0.000189  0.000306
  3C   1s        -0.000016  0.000007  0.000144  0.001285 -0.989811 -0.031835
  3C   2s        -0.000619 -0.000016  0.000977 -0.000533 -0.042155  0.044136
  3C   3s         0.030152  0.003088  0.000673  0.016412  0.032399  0.028356
  3C   1pz       -0.000000 -0.000000  0.000000  0.000000  0.000000  0.000000
  3C   1px        0.000318  0.000203  0.000814 -0.001454 -0.000016  0.021332
  3C   1py        0.000056 -0.000140  0.000011 -0.000121  0.000660  0.015590
  3C   2pz       -0.000000 -0.000000  0.000000 -0.000000 -0.000000 -0.000000
  3C   2px        0.035979 -0.001895 -0.025804  0.010799  0.025456  0.007551
  3C   2py       -0.001061 -0.001907 -0.000275  0.001343  0.001732  0.007743
  3C   1dz2      -0.000121  0.000100  0.000549  0.000645  0.002940 -0.002623
  3C   1dxz      -0.000000 -0.000000  0.000000 -0.000000  0.000000 -0.000000
  3C   1dyz      -0.000000  0.000000 -0.000000 -0.000000  0.000000 -0.000000
  3C   1dx2y2     0.000507  0.000248 -0.001005 -0.001608  0.001657  0.002446
  3C   1dxy      -0.000028 -0.000241  0.000032  0.000021 -0.000142  0.000762
  4H   1s         0.000174 -0.000257  0.000063 -0.000520  0.004213  0.048897
  4H   2s         0.000678  0.000974 -0.001674 -0.000525 -0.008987 -0.015476
  4H   1pz        0.000000 -0.000000 -0.000000  0.000000 -0.000000 -0.000000
  4H   1px       -0.000220 -0.000586 -0.000170  0.000147 -0.000239  0.007840
  4H   1py       -0.000190 -0.000401  0.000029  0.000194 -0.001245 -0.005050
  5H   1s         0.000023 -0.000346  0.000037 -0.000277  0.005095  0.013890
  5H   2s        -0.001157 -0.002335 -0.002038  0.002512 -0.005464 -0.001278
  5H   1pz       -0.000000  0.000000 -0.000000  0.000000 -0.000000 -0.000000
  5H   1px       -0.000124 -0.000132 -0.000059  0.000287 -0.000350  0.000222
  5H   1py        0.000191  0.000067 -0.000055 -0.000260  0.001814  0.003789
  6C   1s         0.000063 -0.000214 -0.000086  0.991034  0.000925 -0.132387
  6C   2s         0.004441 -0.000860  0.000459  0.035985  0.001329  0.256252
  6C   3s        -0.024904 -0.006036  0.015729 -0.018516 -0.022833  0.005359
  6C   1pz        0.000000  0.000000  0.000000  0.000000 -0.000000  0.000000
  6C   1px       -0.000139  0.000138 -0.000528 -0.000358 -0.000822  0.063824
  6C   1py       -0.000362  0.000100 -0.000130  0.001525 -0.000168  0.104050
  6C   2pz        0.000000  0.000000 -0.000000  0.000000 -0.000000 -0.000000
  6C   2px        0.043049 -0.000345 -0.013221  0.020310  0.015216  0.002465
  6C   2py       -0.000712 -0.004293 -0.000529  0.001489 -0.001674 -0.003020
  6C   1dz2       0.001006 -0.000566 -0.000172 -0.001767 -0.000695 -0.021684
  6C   1dxz       0.000000  0.000000 -0.000000  0.000000  0.000000  0.000000
  6C   1dyz       0.000000 -0.000000  0.000000 -0.000000  0.000000 -0.000000
  6C   1dx2y2    -0.001455 -0.001231  0.000435  0.001213  0.001393 -0.002339
  6C   1dxy      -0.000094  0.000289  0.000027  0.000011 -0.000042 -0.004899
  7O   1s        -0.990004  0.000321 -0.000072  0.000488 -0.000013  0.116258
  7O   2s         0.038167  0.000309 -0.000701  0.001585  0.000246  0.231245
  7O   3s        -0.040048 -0.000152  0.004607 -0.013861 -0.004500  0.092101
  7O   1pz        0.000000  0.000000  0.000000  0.000000 -0.000000 -0.000000
  7O   1px       -0.002750 -0.000073  0.000048  0.000277  0.000327 -0.082463
  7O   1py       -0.000376 -0.000209 -0.000020  0.000031 -0.000014  0.027186
  7O   2pz       -0.000000 -0.000000  0.000000 -0.000000  0.000000  0.000000
  7O   2px        0.008636  0.000543 -0.000495  0.005129  0.000880 -0.005256
  7O   2py        0.000218 -0.000828  0.000059  0.000286  0.000052 -0.001919
  7O   1dz2      -0.000128  0.000259  0.000078 -0.000044  0.000194 -0.004160
  7O   1dxz       0.000000  0.000000 -0.000000  0.000000 -0.000000  0.000000
  7O   1dyz       0.000000  0.000000 -0.000000  0.000000 -0.000000 -0.000000
  7O   1dx2y2     0.000261  0.000293 -0.000108 -0.000021 -0.000224  0.007859
  7O   1dxy      -0.000171  0.000513  0.000011 -0.000023  0.000020 -0.001417
  8O   1s         0.000307  0.989479 -0.000015  0.000149 -0.000006  0.228190
  8O   2s        -0.000278 -0.040461 -0.000278 -0.000277 -0.000179  0.423267
  8O   3s         0.001483  0.017627  0.001246 -0.001841  0.001522  0.197405
  8O   1pz       -0.000000 -0.000000  0.000000 -0.000000  0.000000 -0.000000
  8O   1px        0.000058  0.002719 -0.000030  0.000060  0.000030 -0.053200
  8O   1py        0.000105 -0.001322  0.000022  0.000115  0.000204 -0.033197
  8O   2pz        0.000000  0.000000 -0.000000  0.000000 -0.000000 -0.000000
  8O   2px       -0.000476  0.001171 -0.000214 -0.000657  0.000148  0.017509
  8O   2py       -0.001253 -0.007172 -0.000401  0.003340 -0.001440 -0.064342
  8O   1dz2      -0.000125  0.001045 -0.000110  0.000193 -0.000050 -0.010946
  8O   1dxz       0.000000  0.000000 -0.000000  0.000000 -0.000000  0.000000
  8O   1dyz      -0.000000  0.000000  0.000000  0.000000  0.000000 -0.000000
  8O   1dx2y2     0.000258  0.001057 -0.000010  0.000047 -0.000129 -0.010514
  8O   1dxy      -0.000409  0.001709  0.000043 -0.000013 -0.000086 -0.005537
  9H   1s         0.000171  0.008865 -0.000091 -0.000473 -0.000002  0.203985
  9H   2s        -0.000344 -0.001842 -0.000089 -0.000446  0.002023  0.011965
  9H   1pz        0.000000 -0.000000 -0.000000  0.000000 -0.000000  0.000000
  9H   1px        0.000261  0.002983 -0.000097 -0.000210  0.000210  0.011223
  9H   1py        0.000315 -0.003399  0.000046 -0.000690  0.000385 -0.029415
                      6         7         8         9        10        11   
                  -1.33353  -1.21517  -1.02429  -0.90260  -0.81387  -0.71720
                   2.00000   2.00000   2.00000   2.00000   2.00000   2.00000
                  --------  --------  --------  --------  --------  --------
  0N   1s        -0.013458 -0.225348  0.118196  0.061503 -0.003530 -0.021488
  0N   2s        -0.028074 -0.444945  0.236326  0.126011 -0.008054 -0.040409
  0N   3s         0.008990 -0.230989  0.126344  0.038704  0.009565 -0.019540
  0N   1pz       -0.000000  0.000000 -0.000000  0.000000  0.000000 -0.000000
  0N   1px        0.006894  0.047979  0.079658  0.119798 -0.010176 -0.317802
  0N   1py        0.001968 -0.000149 -0.002388 -0.011914 -0.248777 -0.018842
  0N   2pz        0.000000  0.000000  0.000000 -0.000000 -0.000000  0.000000
  0N   2px        0.004831 -0.039343 -0.027232 -0.064809  0.009803  0.165880
  0N   2py        0.000700  0.000671 -0.003682  0.011594  0.124853  0.007400
  0N   1dz2       0.000424  0.009780 -0.002296  0.000908 -0.000102 -0.004530
  0N   1dxz       0.000000  0.000000  0.000000  0.000000 -0.000000 -0.000000
  0N   1dyz      -0.000000  0.000000 -0.000000 -0.000000 -0.000000  0.000000
  0N   1dx2y2    -0.000365 -0.004274 -0.005502 -0.007878  0.000511  0.016598
  0N   1dxy      -0.000164  0.000476  0.000044  0.001134  0.006164 -0.000728
  1H   1s        -0.007471 -0.131196  0.113241  0.094674  0.142249 -0.132167
  1H   2s        -0.001204 -0.006890  0.009175  0.012285  0.014372 -0.032378
  1H   1pz       -0.000000 -0.000000  0.000000 -0.000000  0.000000  0.000000
  1H   1px       -0.001000 -0.009870  0.005083  0.003658  0.012832 -0.000277
  1H   1py        0.000902  0.017210 -0.013924 -0.010870 -0.010287  0.014877
  2H   1s        -0.005591 -0.130223  0.107826  0.085221 -0.154461 -0.159729
  2H   2s         0.000066 -0.005955  0.007257  0.012682 -0.017893 -0.041907
  2H   1pz       -0.000000 -0.000000  0.000000 -0.000000 -0.000000  0.000000
  2H   1px       -0.000585 -0.009765  0.004495  0.002366 -0.013275 -0.002237
  2H   1py       -0.000719 -0.017267  0.013438  0.009979 -0.011696 -0.016605
  3C   1s         0.025587  0.146008  0.145003  0.102569 -0.006683 -0.058135
  3C   2s        -0.039450 -0.247545 -0.254585 -0.184817  0.017010  0.114240
  3C   3s         0.011800 -0.034230 -0.115874 -0.073308  0.033458  0.005438
  3C   1pz       -0.000000  0.000000 -0.000000 -0.000000  0.000000  0.000000
  3C   1px       -0.004540  0.085794 -0.136159  0.014476 -0.006730 -0.289035
  3C   1py       -0.019087  0.006178  0.000033  0.041570  0.345760  0.008150
  3C   2pz       -0.000000  0.000000 -0.000000  0.000000 -0.000000  0.000000
  3C   2px        0.036898  0.005198 -0.054088 -0.063247  0.036475 -0.100632
  3C   2py       -0.005624 -0.000429  0.008434 -0.003229  0.028228  0.005906
  3C   1dz2       0.002498  0.012553  0.005901  0.005463  0.000160 -0.006249
  3C   1dxz      -0.000000 -0.000000  0.000000 -0.000000  0.000000  0.000000
  3C   1dyz       0.000000  0.000000 -0.000000 -0.000000 -0.000000 -0.000000
  3C   1dx2y2    -0.002447 -0.017194 -0.005500  0.002156 -0.001677  0.006734
  3C   1dxy      -0.000671 -0.000095  0.000914  0.004288 -0.005710  0.004044
  4H   1s        -0.052514 -0.109238 -0.121878 -0.094227  0.279158  0.047804
  4H   2s         0.006165  0.003333  0.003790 -0.024039  0.095628 -0.002171
  4H   1pz        0.000000  0.000000  0.000000  0.000000 -0.000000  0.000000
  4H   1px       -0.007953  0.004266 -0.004977 -0.003735 -0.000613 -0.016249
  4H   1py        0.003842  0.020059  0.022065  0.007386 -0.017349 -0.009926
  5H   1s        -0.010235 -0.122401 -0.134881 -0.139760 -0.260569  0.047582
  5H   2s         0.001034 -0.000919  0.006027 -0.022358 -0.073602  0.021679
  5H   1pz       -0.000000  0.000000  0.000000  0.000000  0.000000  0.000000
  5H   1px        0.000221  0.003776 -0.007397 -0.001069  0.001989 -0.014274
  5H   1py       -0.003017 -0.021330 -0.021330 -0.016670 -0.017344  0.007487
  6C   1s        -0.083433  0.025221  0.117636 -0.048060  0.020794  0.096155
  6C   2s         0.182044 -0.054624 -0.264983  0.119187 -0.045140 -0.217753
  6C   3s        -0.024671 -0.026792 -0.034421  0.016670 -0.058508 -0.070669
  6C   1pz        0.000000  0.000000  0.000000  0.000000  0.000000  0.000000
  6C   1px        0.201454  0.036566  0.179228  0.012808 -0.000767  0.128790
  6C   1py       -0.051500  0.018164 -0.053728  0.265494  0.028643  0.147946
  6C   2pz        0.000000 -0.000000  0.000000 -0.000000  0.000000  0.000000
  6C   2px        0.041893  0.019826  0.033322 -0.029179  0.057870  0.024402
  6C   2py       -0.008233 -0.000580  0.005816  0.034151  0.009784  0.064325
  6C   1dz2      -0.009862  0.001748  0.012228 -0.009956  0.001663  0.003802
  6C   1dxz       0.000000 -0.000000 -0.000000  0.000000 -0.000000 -0.000000
  6C   1dyz      -0.000000 -0.000000 -0.000000  0.000000 -0.000000  0.000000
  6C   1dx2y2     0.028974 -0.005633  0.001552 -0.036876  0.003807 -0.016292
  6C   1dxy       0.007189 -0.000719  0.000351  0.008046 -0.018736  0.020298
  7O   1s         0.223117 -0.004083  0.059969 -0.092586  0.035123  0.005091
  7O   2s         0.438041 -0.006429  0.126616 -0.195209  0.075529  0.011668
  7O   3s         0.267030 -0.015672  0.077972 -0.149408  0.047872  0.010851
  7O   1pz       -0.000000 -0.000000 -0.000000  0.000000 -0.000000  0.000000
  7O   1px       -0.114368  0.002027  0.013243 -0.068752  0.038297  0.014825
  7O   1py        0.004165  0.007487  0.004592  0.107256 -0.021727  0.165347
  7O   2pz       -0.000000  0.000000 -0.000000  0.000000 -0.000000  0.000000
  7O   2px       -0.037405  0.003893  0.012063 -0.039128  0.023192  0.007292
  7O   2py        0.009951  0.001265 -0.003383  0.059597 -0.013008  0.099181
  7O   1dz2      -0.006845  0.000196  0.000343 -0.003440  0.001321 -0.000537
  7O   1dxz       0.000000  0.000000  0.000000 -0.000000  0.000000 -0.000000
  7O   1dyz      -0.000000  0.000000  0.000000 -0.000000  0.000000  0.000000
  7O   1dx2y2     0.011052 -0.000202  0.000042  0.003102 -0.000996 -0.001626
  7O   1dxy      -0.000525 -0.000601  0.000119 -0.009625  0.000089 -0.011714
  8O   1s        -0.138703  0.044740  0.055978  0.031146 -0.043388  0.036797
  8O   2s        -0.255539  0.082036  0.098029  0.078869 -0.092235  0.082559
  8O   3s        -0.114825  0.057425  0.035593  0.158376 -0.072788  0.087562
  8O   1pz        0.000000 -0.000000 -0.000000  0.000000  0.000000  0.000000
  8O   1px        0.105443 -0.002257  0.000579  0.151393 -0.110830  0.208177
  8O   1py       -0.087801  0.034931  0.227947 -0.353087 -0.027919 -0.036251
  8O   2pz       -0.000000  0.000000 -0.000000  0.000000  0.000000  0.000000
  8O   2px       -0.004344  0.007077  0.036636  0.017914 -0.073264  0.115017
  8O   2py        0.035839 -0.007082  0.043947 -0.100982 -0.018002  0.007434
  8O   1dz2       0.004506 -0.001281 -0.000286  0.001638 -0.002711  0.003941
  8O   1dxz      -0.000000  0.000000  0.000000 -0.000000 -0.000000 -0.000000
  8O   1dyz       0.000000 -0.000000 -0.000000 -0.000000  0.000000 -0.000000
  8O   1dx2y2     0.000506 -0.001182  0.002506 -0.009825  0.006514 -0.002506
  8O   1dxy       0.003542 -0.003786 -0.015472  0.012755  0.004691 -0.003693
  9H   1s        -0.229957  0.063714  0.214526 -0.301221 -0.005084 -0.089627
  9H   2s        -0.013263  0.001969  0.019482 -0.028101 -0.017274 -0.001668
  9H   1pz       -0.000000  0.000000  0.000000  0.000000  0.000000  0.000000
  9H   1px       -0.011947  0.005186  0.014951 -0.010481 -0.006608  0.004756
  9H   1py        0.028091 -0.006183 -0.016093  0.023656 -0.002714  0.010739
                     12        13        14        15        16        17   
                  -0.66981  -0.65370  -0.63043  -0.50905  -0.47972  -0.45893
                   2.00000   2.00000   2.00000   2.00000   2.00000   2.00000
                  --------  --------  --------  --------  --------  --------
  0N   1s         0.000151  0.000000 -0.002235  0.000000  0.021097  0.000000
  0N   2s         0.002455 -0.000000 -0.008826  0.000000  0.045628  0.000000
  0N   3s        -0.028515  0.000000  0.044340  0.000000  0.067643 -0.000000
  0N   1pz        0.000000  0.054129  0.000000 -0.517277  0.000000 -0.000861
  0N   1px        0.001307 -0.000000  0.083584 -0.000000 -0.139425 -0.000000
  0N   1py       -0.344846  0.000000 -0.150244 -0.000000 -0.076869 -0.000000
  0N   2pz       -0.000000 -0.027701 -0.000000  0.400258 -0.000000  0.010474
  0N   2px       -0.012180  0.000000 -0.025088  0.000000  0.094577  0.000000
  0N   2py        0.155275 -0.000000  0.068092  0.000000  0.012787  0.000000
  0N   1dz2       0.000237 -0.000000  0.001047 -0.000000 -0.001636  0.000000
  0N   1dxz      -0.000000 -0.003170  0.000000  0.010769 -0.000000  0.000687
  0N   1dyz      -0.000000 -0.000106 -0.000000  0.000070 -0.000000 -0.000168
  0N   1dx2y2    -0.000513  0.000000 -0.003933 -0.000000  0.005080  0.000000
  0N   1dxy      -0.014064  0.000000 -0.008941 -0.000000 -0.012535 -0.000000
  1H   1s         0.260793 -0.000000  0.152726  0.000000  0.038676  0.000000
  1H   2s         0.075361 -0.000000  0.054805 -0.000000  0.014699 -0.000000
  1H   1pz       -0.000000 -0.002344 -0.000000  0.020707 -0.000000 -0.000783
  1H   1px        0.015643 -0.000000  0.006169  0.000000  0.002458  0.000000
  1H   1py       -0.015747  0.000000 -0.010535  0.000000  0.000045 -0.000000
  2H   1s        -0.256894  0.000000 -0.085723 -0.000000 -0.131064 -0.000000
  2H   2s        -0.075800  0.000000 -0.029224 -0.000000 -0.069995 -0.000000
  2H   1pz       -0.000000 -0.002227 -0.000000  0.020331 -0.000000 -0.000672
  2H   1px       -0.015109  0.000000 -0.006444  0.000000 -0.001709  0.000000
  2H   1py       -0.015894  0.000000 -0.003320 -0.000000 -0.008500 -0.000000
  3C   1s        -0.001409  0.000000 -0.007969  0.000000  0.060210  0.000000
  3C   2s         0.001582 -0.000000  0.011445  0.000000 -0.122369 -0.000000
  3C   3s        -0.084377  0.000000  0.134439 -0.000000 -0.171108 -0.000000
  3C   1pz       -0.000000 -0.123903 -0.000000  0.242506 -0.000000  0.015667
  3C   1px        0.008698 -0.000000  0.103920  0.000000 -0.191572 -0.000000
  3C   1py       -0.174218  0.000000 -0.139058 -0.000000 -0.212060 -0.000000
  3C   2pz       -0.000000 -0.076756 -0.000000  0.169940 -0.000000 -0.025064
  3C   2px       -0.073432  0.000000  0.152981  0.000000 -0.077195 -0.000000
  3C   2py       -0.017240  0.000000 -0.017287 -0.000000 -0.065835 -0.000000
  3C   1dz2       0.000333  0.000000  0.000383 -0.000000 -0.002400 -0.000000
  3C   1dxz      -0.000000 -0.010302 -0.000000 -0.015460  0.000000  0.001293
  3C   1dyz       0.000000 -0.000653  0.000000 -0.001202  0.000000 -0.002178
  3C   1dx2y2     0.001037  0.000000  0.000351 -0.000000  0.005414  0.000000
  3C   1dxy      -0.014649  0.000000 -0.003362  0.000000  0.007195  0.000000
  4H   1s        -0.147124  0.000000 -0.110982 -0.000000 -0.205572 -0.000000
  4H   2s        -0.040908  0.000000 -0.067459  0.000000  0.014134 -0.000000
  4H   1pz       -0.000000 -0.010327 -0.000000  0.011016  0.000000 -0.005481
  4H   1px       -0.010968 -0.000000  0.000379  0.000000  0.008883  0.000000
  4H   1py        0.006934 -0.000000  0.002711  0.000000  0.017209  0.000000
  5H   1s         0.140410 -0.000000  0.122563  0.000000  0.096889  0.000000
  5H   2s         0.042362 -0.000000  0.034454  0.000000  0.060191 -0.000000
  5H   1pz       -0.000000 -0.005608 -0.000000  0.013427 -0.000000  0.003604
  5H   1px        0.009766 -0.000000  0.007459 -0.000000 -0.013874 -0.000000
  5H   1py        0.007537 -0.000000  0.007997 -0.000000  0.001444  0.000000
  6C   1s        -0.057777  0.000000  0.077396  0.000000  0.004154 -0.000000
  6C   2s         0.131562 -0.000000 -0.184101 -0.000000 -0.005253  0.000000
  6C   3s         0.123724 -0.000000 -0.119702  0.000000 -0.047117  0.000000
  6C   1pz       -0.000000 -0.309979 -0.000000 -0.011059 -0.000000  0.142643
  6C   1px        0.094696  0.000000 -0.288697 -0.000000  0.073205  0.000000
  6C   1py       -0.124245  0.000000  0.105950  0.000000  0.156230  0.000000
  6C   2pz       -0.000000 -0.130060 -0.000000 -0.009023 -0.000000  0.104602
  6C   2px       -0.109078  0.000000  0.094714 -0.000000  0.050372 -0.000000
  6C   2py       -0.047290  0.000000  0.031184  0.000000  0.015928  0.000000
  6C   1dz2      -0.001487 -0.000000  0.003265 -0.000000 -0.004354  0.000000
  6C   1dxz       0.000000 -0.011520 -0.000000 -0.018782 -0.000000  0.036665
  6C   1dyz      -0.000000 -0.023230 -0.000000 -0.006942  0.000000 -0.025181
  6C   1dx2y2     0.012497 -0.000000 -0.021241 -0.000000 -0.032490  0.000000
  6C   1dxy       0.014613 -0.000000  0.013801 -0.000000 -0.030179 -0.000000
  7O   1s        -0.069273 -0.000000  0.096463  0.000000  0.014047  0.000000
  7O   2s        -0.150950  0.000000  0.208622  0.000000  0.032589  0.000000
  7O   3s        -0.120115 -0.000000  0.202973  0.000000  0.015573  0.000000
  7O   1pz       -0.000000 -0.276319 -0.000000 -0.094702 -0.000000  0.460175
  7O   1px       -0.204934 -0.000000  0.428713  0.000000  0.016675 -0.000000
  7O   1py       -0.003274  0.000000  0.042835 -0.000000 -0.160304  0.000000
  7O   2pz       -0.000000 -0.169108 -0.000000 -0.071628 -0.000000  0.347025
  7O   2px       -0.123463 -0.000000  0.259133  0.000000  0.012955 -0.000000
  7O   2py        0.001875  0.000000  0.027528 -0.000000 -0.121775  0.000000
  7O   1dz2      -0.005333 -0.000000  0.010619  0.000000 -0.000345  0.000000
  7O   1dxz       0.000000  0.019470  0.000000  0.004084  0.000000 -0.022610
  7O   1dyz      -0.000000 -0.000180  0.000000 -0.000278  0.000000 -0.003386
  7O   1dx2y2     0.008260  0.000000 -0.020688 -0.000000  0.005155  0.000000
  7O   1dxy       0.003927 -0.000000 -0.007361  0.000000  0.004905 -0.000000
  8O   1s         0.019753 -0.000000  0.030518  0.000000  0.000645 -0.000000
  8O   2s         0.042705 -0.000000  0.067390  0.000000 -0.002069 -0.000000
  8O   3s         0.022040  0.000000  0.092367  0.000000  0.026832 -0.000000
  8O   1pz       -0.000000 -0.402964 -0.000000 -0.110390  0.000000 -0.435131
  8O   1px        0.130802 -0.000000  0.090171 -0.000000 -0.449056 -0.000000
  8O   1py        0.104853 -0.000000 -0.064440 -0.000000 -0.237714 -0.000000
  8O   2pz       -0.000000 -0.277060 -0.000000 -0.088429  0.000000 -0.371599
  8O   2px        0.105132 -0.000000  0.058288 -0.000000 -0.351045 -0.000000
  8O   2py        0.060206 -0.000000 -0.025626 -0.000000 -0.183090 -0.000000
  8O   1dz2       0.003329 -0.000000  0.002520 -0.000000 -0.007332 -0.000000
  8O   1dxz       0.000000  0.009259  0.000000  0.000904 -0.000000  0.013400
  8O   1dyz       0.000000  0.012493  0.000000  0.001310 -0.000000  0.001513
  8O   1dx2y2    -0.005572  0.000000 -0.001339 -0.000000  0.001634  0.000000
  8O   1dxy      -0.007710  0.000000  0.005876  0.000000  0.004781 -0.000000
  9H   1s         0.034498 -0.000000 -0.073410 -0.000000  0.049808  0.000000
  9H   2s         0.017403 -0.000000  0.000660 -0.000000 -0.050949 -0.000000
  9H   1pz       -0.000000 -0.022532 -0.000000 -0.005977  0.000000 -0.027330
  9H   1px        0.008810  0.000000  0.002869  0.000000 -0.021963 -0.000000
  9H   1py        0.002983 -0.000000  0.005269 -0.000000 -0.016918 -0.000000
                     18        19        20        21        22        23   
                  -0.40044  -0.27959   0.00497   0.16837   0.18643   0.21201
                   2.00000   2.00000   0.00000   0.00000   0.00000   0.00000
                  --------  --------  --------  --------  --------  --------
  0N   1s         0.022821 -0.000000  0.104950  0.042524  0.021103  0.000000
  0N   2s         0.050294 -0.000000  0.208637  0.030775  0.014447  0.000000
  0N   3s         0.053763 -0.000000  0.594075  0.705656  0.455266  0.000000
  0N   1pz       -0.000000  0.319644  0.000000 -0.000000 -0.000000  0.131656
  0N   1px       -0.112528  0.000000 -0.220787  0.208835  0.058584  0.000000
  0N   1py        0.017482 -0.000000  0.004909  0.011979 -0.186032  0.000000
  0N   2pz        0.000000 -0.366951 -0.000000  0.000000  0.000000 -0.186972
  0N   2px        0.072148 -0.000000  0.153667 -0.502028 -0.134454 -0.000000
  0N   2py       -0.010574  0.000000  0.016075 -0.049418  0.487255 -0.000000
  0N   1dz2      -0.000259  0.000000  0.003724 -0.005794 -0.003667 -0.000000
  0N   1dxz      -0.000000  0.011791  0.000000 -0.000000  0.000000  0.018726
  0N   1dyz      -0.000000 -0.000242 -0.000000 -0.000000 -0.000000  0.000141
  0N   1dx2y2     0.003513  0.000000  0.001462  0.000864 -0.003978  0.000000
  0N   1dxy       0.003946 -0.000000  0.002534 -0.003843 -0.003402  0.000000
  1H   1s        -0.057538  0.000000 -0.097374 -0.007402 -0.012983 -0.000000
  1H   2s        -0.029531  0.000000 -0.290397 -0.655668 -1.119949  0.000000
  1H   1pz        0.000000 -0.014160 -0.000000  0.000000 -0.000000 -0.011221
  1H   1px        0.001679 -0.000000  0.004940 -0.009469 -0.007822 -0.000000
  1H   1py        0.003955 -0.000000  0.006192  0.001445  0.011074 -0.000000
  2H   1s        -0.013891 -0.000000 -0.068137 -0.052276 -0.003282 -0.000000
  2H   2s        -0.011726  0.000000 -0.242218 -0.770922  0.383044 -0.000000
  2H   1pz        0.000000 -0.013770 -0.000000  0.000000 -0.000000 -0.011166
  2H   1px        0.001518 -0.000000  0.004861 -0.006771  0.003986 -0.000000
  2H   1py       -0.002295  0.000000 -0.004783 -0.003503  0.000220 -0.000000
  3C   1s         0.020913 -0.000000  0.046732 -0.098992  0.021145 -0.000000
  3C   2s        -0.038956  0.000000 -0.110528  0.201972 -0.017341  0.000000
  3C   3s         0.058548  0.000000  0.073718  1.515514 -0.681895  0.000000
  3C   1pz       -0.000000  0.438339  0.000000 -0.000000  0.000000  0.300340
  3C   1px       -0.085052  0.000000  0.011239  0.116416 -0.016410 -0.000000
  3C   1py        0.071343  0.000000  0.017618 -0.041485  0.114455 -0.000000
  3C   2pz       -0.000000  0.456722  0.000000 -0.000000  0.000000  0.517081
  3C   2px       -0.057824 -0.000000 -0.099136 -0.022503  0.012156 -0.000000
  3C   2py        0.092380  0.000000 -0.061876 -0.250969  0.929955 -0.000000
  3C   1dz2      -0.000531 -0.000000 -0.001468 -0.004888 -0.000474 -0.000000
  3C   1dxz       0.000000  0.032057  0.000000 -0.000000 -0.000000 -0.027489
  3C   1dyz      -0.000000 -0.002601  0.000000  0.000000 -0.000000  0.002033
  3C   1dx2y2     0.019662 -0.000000  0.066495 -0.019119 -0.013032 -0.000000
  3C   1dxy      -0.001459  0.000000 -0.005631  0.010381 -0.006889  0.000000
  4H   1s        -0.038792  0.000000 -0.241238  0.084075  0.045555  0.000000
  4H   2s        -0.144314 -0.000000 -0.369472 -0.410638 -0.632543  0.000000
  4H   1pz       -0.000000  0.020116  0.000000 -0.000000  0.000000  0.024163
  4H   1px       -0.011240  0.000000  0.001221  0.007925  0.001327 -0.000000
  4H   1py       -0.008314 -0.000000 -0.003929 -0.003148  0.007218  0.000000
  5H   1s        -0.122810  0.000000 -0.294255  0.128116  0.046780  0.000000
  5H   2s        -0.048716 -0.000000 -0.553590 -0.957961  1.676065 -0.000000
  5H   1pz        0.000000  0.026244  0.000000 -0.000000 -0.000000  0.013399
  5H   1px       -0.003221 -0.000000  0.011357 -0.003395  0.004917 -0.000000
  5H   1py       -0.004366  0.000000  0.003096  0.001201 -0.000633 -0.000000
  6C   1s        -0.031213  0.000000 -0.117421  0.060948  0.022012  0.000000
  6C   2s         0.071554 -0.000000  0.273183 -0.112735 -0.065980 -0.000000
  6C   3s         0.194261 -0.000000  0.595897 -0.620143  0.128156 -0.000000
  6C   1pz        0.000000  0.174375  0.000000  0.000000 -0.000000 -0.551740
  6C   1px       -0.082770  0.000000 -0.253009  0.089886  0.038203  0.000000
  6C   1py       -0.089876  0.000000 -0.144034  0.129607 -0.042441 -0.000000
  6C   2pz        0.000000  0.142867  0.000000  0.000000 -0.000000 -0.757533
  6C   2px        0.069918  0.000000 -0.299830 -0.050581  0.078782  0.000000
  6C   2py       -0.102576  0.000000 -0.064632  0.200159 -0.041412 -0.000000
  6C   1dz2       0.004286 -0.000000  0.008823 -0.009793 -0.003838 -0.000000
  6C   1dxz       0.000000 -0.047742 -0.000000  0.000000  0.000000  0.012018
  6C   1dyz      -0.000000 -0.010715  0.000000  0.000000  0.000000  0.003950
  6C   1dx2y2    -0.031458  0.000000  0.005277  0.028525 -0.009106 -0.000000
  6C   1dxy      -0.031339 -0.000000  0.008418 -0.008503  0.004415 -0.000000
  7O   1s        -0.033670  0.000000 -0.004833  0.029609 -0.002951 -0.000000
  7O   2s        -0.075579  0.000000 -0.012279  0.047351 -0.001925 -0.000000
  7O   3s        -0.153276  0.000000  0.041339  0.283653 -0.068260 -0.000000
  7O   1pz        0.000000 -0.184224 -0.000000  0.000000  0.000000  0.294730
  7O   1px        0.144222 -0.000000  0.069056 -0.108531  0.010370 -0.000000
  7O   1py       -0.522817 -0.000000  0.217356 -0.130094  0.050308 -0.000000
  7O   2pz        0.000000 -0.190115 -0.000000  0.000000  0.000000  0.422197
  7O   2px        0.116397 -0.000000  0.051985 -0.169656  0.024419  0.000000
  7O   2py       -0.403378 -0.000000  0.213388 -0.150064  0.074392 -0.000000
  7O   1dz2      -0.001036 -0.000000  0.003190 -0.002356 -0.000737 -0.000000
  7O   1dxz      -0.000000  0.002535  0.000000 -0.000000  0.000000  0.011123
  7O   1dyz      -0.000000 -0.001121  0.000000  0.000000  0.000000  0.002470
  7O   1dx2y2    -0.008288  0.000000 -0.000143  0.003013 -0.001524  0.000000
  7O   1dxy       0.020081  0.000000 -0.000611 -0.002556 -0.000493  0.000000
  8O   1s         0.073450  0.000000 -0.021942  0.010784  0.030754 -0.000000
  8O   2s         0.161180  0.000000 -0.046744  0.000875  0.045569 -0.000000
  8O   3s         0.284814  0.000000 -0.138444  0.254383  0.403580 -0.000000
  8O   1pz       -0.000000 -0.167521  0.000000  0.000000  0.000000  0.123394
  8O   1px        0.267109  0.000000 -0.094861  0.027819 -0.048029 -0.000000
  8O   1py       -0.066647  0.000000  0.089220  0.054368  0.021836 -0.000000
  8O   2pz       -0.000000 -0.173272  0.000000  0.000000  0.000000  0.234524
  8O   2px        0.181109 -0.000000 -0.061041 -0.029801 -0.089335 -0.000000
  8O   2py       -0.021348  0.000000  0.084330  0.090466  0.147486 -0.000000
  8O   1dz2       0.008956 -0.000000 -0.002096 -0.006007 -0.004075  0.000000
  8O   1dxz       0.000000 -0.001119 -0.000000  0.000000 -0.000000 -0.003676
  8O   1dyz      -0.000000 -0.004028 -0.000000 -0.000000  0.000000  0.016782
  8O   1dx2y2    -0.011257 -0.000000 -0.003000 -0.001910  0.001610  0.000000
  8O   1dxy       0.009663  0.000000 -0.001526 -0.002966 -0.006681  0.000000
  9H   1s        -0.153126 -0.000000  0.085610 -0.023783 -0.030868  0.000000
  9H   2s        -0.007221 -0.000000  0.013806 -0.259827 -0.590370  0.000000
  9H   1pz       -0.000000 -0.009246  0.000000 -0.000000  0.000000  0.013565
  9H   1px        0.013200  0.000000  0.005610 -0.000819 -0.014526  0.000000
  9H   1py        0.013429  0.000000 -0.001722  0.007782  0.003522 -0.000000
                     24        25        26        27        28        29   
                   0.21409   0.25571   0.32474   0.39241   0.42901   0.57820
                   0.00000   0.00000   0.00000   0.00000   0.00000   0.00000
                  --------  --------  --------  --------  --------  --------
  0N   1s         0.057732 -0.008475  0.010520  0.046280  0.016178  0.018036
  0N   2s         0.062518 -0.025505  0.052119  0.030106  0.069871 -0.070212
  0N   3s         0.922155  0.101019 -0.275771  1.367251 -0.490611  2.729878
  0N   1pz        0.000000 -0.000000 -0.000000  0.000000  0.000000  0.000000
  0N   1px        0.123121  0.002441 -0.045308 -0.127505 -0.045335 -0.055053
  0N   1py        0.079422  0.198697  0.044840  0.008682  0.003435  0.000748
  0N   2pz       -0.000000  0.000000  0.000000 -0.000000 -0.000000 -0.000000
  0N   2px       -0.341566  0.050481  0.002720  0.869557 -0.204667  1.567292
  0N   2py       -0.221307 -0.703717 -0.333653 -0.034025  0.031262  0.005660
  0N   1dz2      -0.004910 -0.002721  0.006676 -0.005160  0.015852 -0.052907
  0N   1dxz       0.000000 -0.000000 -0.000000 -0.000000  0.000000 -0.000000
  0N   1dyz       0.000000  0.000000 -0.000000  0.000000  0.000000 -0.000000
  0N   1dx2y2    -0.011650 -0.000399  0.005762 -0.015945 -0.025323 -0.002997
  0N   1dxy       0.004928  0.005401 -0.012948  0.004015 -0.008213 -0.013295
  1H   1s        -0.037612  0.045753  0.059360  0.039757  0.063937  0.309852
  1H   2s        -0.501190  1.124464  0.906697 -0.047609 -0.324266 -0.030040
  1H   1pz       -0.000000 -0.000000  0.000000 -0.000000 -0.000000 -0.000000
  1H   1px        0.007461  0.002799 -0.005441  0.013919  0.022101 -0.022537
  1H   1py        0.009311 -0.009362 -0.019329  0.006276  0.020139  0.012432
  2H   1s        -0.010220 -0.024554 -0.120835  0.060573 -0.006594  0.194377
  2H   2s        -1.255202 -1.117304 -0.512338 -0.085267 -0.164240  0.126956
  2H   1pz       -0.000000  0.000000  0.000000 -0.000000 -0.000000 -0.000000
  2H   1px       -0.001985 -0.008414  0.006489  0.009492  0.034477 -0.007094
  2H   1py       -0.015501 -0.013681 -0.002989 -0.005889 -0.015551 -0.009047
  3C   1s         0.074769  0.007109 -0.030896  0.020660  0.072277 -0.074708
  3C   2s        -0.121649  0.009683  0.020190  0.225302 -0.375728  0.827238
  3C   3s        -1.753583 -0.387520  1.611973 -3.696378 -2.018967 -1.928731
  3C   1pz        0.000000 -0.000000 -0.000000  0.000000  0.000000 -0.000000
  3C   1px       -0.014904 -0.036165  0.059855  0.285753  0.194269  0.059671
  3C   1py        0.006366  0.098302  0.147816  0.024646 -0.024927 -0.028319
  3C   2pz        0.000000 -0.000000 -0.000000  0.000000  0.000000  0.000000
  3C   2px       -0.353278  0.230721 -0.039235  1.085134 -1.193140  4.021911
  3C   2py        0.079593  0.678328  1.967052 -0.011232 -0.660195 -0.322811
  3C   1dz2       0.003575 -0.002521  0.002451 -0.012558  0.038290 -0.043923
  3C   1dxz       0.000000  0.000000 -0.000000 -0.000000 -0.000000 -0.000000
  3C   1dyz      -0.000000  0.000000 -0.000000 -0.000000 -0.000000  0.000000
  3C   1dx2y2    -0.018356 -0.009946  0.024248  0.021616  0.041652 -0.054109
  3C   1dxy      -0.005098  0.003312  0.021115 -0.002822  0.007265  0.017769
  4H   1s         0.071160  0.076309 -0.093784  0.016406 -0.259593  0.368102
  4H   2s         1.029803 -0.288113 -4.150748  1.696168  2.059344  1.103638
  4H   1pz       -0.000000  0.000000  0.000000 -0.000000  0.000000 -0.000000
  4H   1px        0.002130  0.000614  0.014623 -0.000036  0.021309 -0.022942
  4H   1py        0.005058  0.005378 -0.007363 -0.004435 -0.037506  0.038556
  5H   1s         0.044585 -0.011066 -0.068380  0.011824 -0.216277  0.380013
  5H   2s         1.166902  1.071225  1.939864  1.361692  0.722041  0.556224
  5H   1pz        0.000000 -0.000000 -0.000000  0.000000  0.000000 -0.000000
  5H   1px        0.009188 -0.000681 -0.012410 -0.001313  0.000151 -0.041487
  5H   1py       -0.005392 -0.004397  0.012771 -0.004868  0.033794 -0.032072
  6C   1s         0.008296  0.016195 -0.004307 -0.061812 -0.006695  0.013613
  6C   2s        -0.069030 -0.054040  0.043104  0.489333 -0.134452 -0.078538
  6C   3s         0.478954  0.066107 -0.273379 -2.353523  2.799514 -0.742016
  6C   1pz        0.000000 -0.000000 -0.000000  0.000000 -0.000000 -0.000000
  6C   1px        0.036031  0.022032 -0.037405 -0.215828 -0.062877 -0.041110
  6C   1py       -0.033400 -0.106296  0.188018  0.050079  0.192595  0.067599
  6C   2pz        0.000000  0.000000 -0.000000 -0.000000 -0.000000  0.000000
  6C   2px       -0.059038  0.233588  0.052714 -1.067276 -0.632089  3.459842
  6C   2py       -0.213563 -0.089539  0.323103 -0.319442  1.964038  0.771136
  6C   1dz2       0.001068 -0.002383  0.000103 -0.014145  0.004452 -0.018000
  6C   1dxz      -0.000000  0.000000  0.000000 -0.000000 -0.000000  0.000000
  6C   1dyz      -0.000000  0.000000  0.000000 -0.000000  0.000000 -0.000000
  6C   1dx2y2    -0.019929 -0.006933  0.025251  0.024790  0.024311  0.046158
  6C   1dxy       0.007140  0.001644 -0.015384  0.000243 -0.007969 -0.004326
  7O   1s        -0.023473 -0.004229  0.016141  0.059615  0.009820 -0.047641
  7O   2s        -0.039902 -0.002673  0.044603  0.033848  0.041382  0.005893
  7O   3s        -0.189595 -0.127383  0.025704  1.460484 -0.229910 -2.040056
  7O   1pz       -0.000000 -0.000000  0.000000  0.000000  0.000000 -0.000000
  7O   1px        0.058716  0.015753 -0.067800 -0.055715 -0.060251 -0.079221
  7O   1py        0.032609  0.070175 -0.054201 -0.067832 -0.105586 -0.009269
  7O   2pz       -0.000000 -0.000000  0.000000  0.000000  0.000000 -0.000000
  7O   2px        0.118330  0.035160 -0.063318 -0.454718 -0.012960  0.473816
  7O   2py        0.043323  0.117124 -0.124265 -0.074942 -0.323820 -0.065787
  7O   1dz2       0.001608 -0.001310  0.002977 -0.011163  0.010053  0.020252
  7O   1dxz      -0.000000  0.000000 -0.000000 -0.000000  0.000000  0.000000
  7O   1dyz      -0.000000  0.000000  0.000000  0.000000  0.000000 -0.000000
  7O   1dx2y2    -0.004250 -0.002275  0.001801  0.007923  0.003005 -0.018142
  7O   1dxy       0.001274  0.000079 -0.001283 -0.003751 -0.002387 -0.000269
  8O   1s        -0.021854  0.050219 -0.051298  0.004902 -0.038671 -0.039746
  8O   2s        -0.022796  0.062746 -0.070028 -0.020368  0.015606 -0.097520
  8O   3s        -0.373348  0.786832 -0.820310  0.593975 -1.365466 -0.539119
  8O   1pz       -0.000000  0.000000  0.000000 -0.000000  0.000000  0.000000
  8O   1px        0.046279 -0.038927 -0.022894  0.088581  0.033897  0.009343
  8O   1py       -0.112642  0.064039  0.035983  0.049295  0.173539  0.055850
  8O   2pz       -0.000000  0.000000  0.000000 -0.000000  0.000000 -0.000000
  8O   2px        0.120717 -0.129438 -0.032007  0.258756  0.034633 -0.225175
  8O   2py       -0.232144  0.267022 -0.103031 -0.162938  0.852031  0.328745
  8O   1dz2       0.007846 -0.007583  0.001017 -0.013761  0.011742 -0.001164
  8O   1dxz       0.000000 -0.000000  0.000000 -0.000000 -0.000000 -0.000000
  8O   1dyz      -0.000000 -0.000000  0.000000  0.000000  0.000000  0.000000
  8O   1dx2y2     0.006167  0.002640 -0.007202 -0.008564 -0.000236  0.006804
  8O   1dxy       0.007159 -0.011103  0.016725  0.000118 -0.006612  0.003241
  9H   1s        -0.008083 -0.063650  0.070820  0.070428  0.006377 -0.071053
  9H   2s         0.591447 -1.258084  1.759517 -0.264396 -1.301512 -0.412325
  9H   1pz       -0.000000 -0.000000  0.000000 -0.000000  0.000000  0.000000
  9H   1px        0.000472 -0.023580  0.029163  0.007878  0.001059 -0.003247
  9H   1py       -0.009514  0.007661 -0.013539  0.028689  0.007443 -0.000253
                     30        31        32        33        34        35   
                   0.65633   0.67261   0.71564   0.73233   0.78128   0.78517
                   0.00000   0.00000   0.00000   0.00000   0.00000   0.00000
                  --------  --------  --------  --------  --------  --------
  0N   1s        -0.051882 -0.000000  0.089864  0.067890 -0.000000 -0.085544
  0N   2s        -0.089358  0.000000  0.184817  0.195719 -0.000000 -0.394828
  0N   3s        -1.311627 -0.000000  1.082512  0.289767  0.000000  0.558045
  0N   1pz        0.000000  0.033137 -0.000000  0.000000 -0.262863  0.000000
  0N   1px        0.098731  0.000000 -0.050376  0.132397  0.000000  0.096532
  0N   1py        0.033877  0.000000  0.047081 -0.003989  0.000000  0.146823
  0N   2pz        0.000000 -0.031702 -0.000000  0.000000  0.031420 -0.000000
  0N   2px       -0.645462 -0.000000  0.608460 -0.361620 -0.000000  0.043933
  0N   2py        0.017288  0.000000 -0.103135  0.046084 -0.000000 -0.071458
  0N   1dz2      -0.034345  0.000000  0.065165  0.051527 -0.000000 -0.005969
  0N   1dxz       0.000000 -0.017943  0.000000  0.000000  0.012809 -0.000000
  0N   1dyz       0.000000 -0.000576  0.000000 -0.000000 -0.000696  0.000000
  0N   1dx2y2     0.002143  0.000000  0.007348  0.085610 -0.000000 -0.036299
  0N   1dxy      -0.024445  0.000000 -0.053410  0.007496 -0.000000 -0.085574
  1H   1s         0.291499 -0.000000 -0.145678 -0.780187  0.000000  0.607831
  1H   2s        -0.218103 -0.000000  0.174968  0.275596 -0.000000 -0.711476
  1H   1pz       -0.000000  0.005539  0.000000 -0.000000  0.005547 -0.000000
  1H   1px       -0.039754 -0.000000 -0.013461 -0.023189 -0.000000 -0.060809
  1H   1py        0.022824 -0.000000 -0.053579 -0.117361  0.000000  0.077168
  2H   1s         0.032256 -0.000000 -0.674798 -0.691462 -0.000000 -0.260490
  2H   2s        -0.129210 -0.000000  0.519197  0.292198  0.000000  0.154382
  2H   1pz       -0.000000  0.005908  0.000000 -0.000000  0.006193 -0.000000
  2H   1px        0.017176 -0.000000  0.067883 -0.035224  0.000000  0.086118
  2H   1py       -0.013374  0.000000  0.069581  0.117690 -0.000000 -0.016309
  3C   1s         0.021618 -0.000000  0.078326 -0.023666  0.000000  0.025992
  3C   2s         0.110773  0.000000 -0.424808  0.500504 -0.000000 -0.299754
  3C   3s        -3.898968 -0.000000  2.929757 -1.601261  0.000000  4.680447
  3C   1pz       -0.000000 -0.548502  0.000000 -0.000000  0.807245 -0.000000
  3C   1px       -0.407339 -0.000000  0.378376 -0.216197  0.000000  0.141098
  3C   1py        0.102033 -0.000000  0.001751  0.004790  0.000000  0.168567
  3C   2pz        0.000000  0.356973 -0.000000  0.000000 -1.299384  0.000000
  3C   2px       -3.555560 -0.000000  2.632598  0.183061  0.000000  1.771902
  3C   2py       -0.521410  0.000000 -0.297639 -0.215494 -0.000000 -0.965246
  3C   1dz2      -0.033202  0.000000 -0.037300 -0.046142 -0.000000 -0.004579
  3C   1dxz       0.000000 -0.023185 -0.000000  0.000000 -0.012000  0.000000
  3C   1dyz      -0.000000 -0.005935  0.000000 -0.000000 -0.007000  0.000000
  3C   1dx2y2    -0.055482  0.000000 -0.025971  0.004180 -0.000000  0.016197
  3C   1dxy      -0.001389 -0.000000  0.025565  0.004291  0.000000  0.064520
  4H   1s         0.335683 -0.000000  0.155128  0.139946  0.000000  0.116018
  4H   2s         0.174589  0.000000 -0.391604  1.061892  0.000000  0.447847
  4H   1pz       -0.000000 -0.036838  0.000000 -0.000000  0.039018 -0.000000
[...]
      6      -0.105750   0.147284   0.087628  -0.332838  -0.202769  -0.282193
      7      -0.014901   0.399427  -0.430088   0.005314   0.056017   0.241040
      8      -0.011388   0.540750  -0.481762  -0.114983   0.176972   0.267686
      9       0.003571  -0.071672  -0.102139  -0.059211   0.179254   0.008185
     10       0.000024  -0.047646   0.020614  -0.147193  -0.129171   0.073918
     11       0.009202  -0.044744  -0.138448  -0.020871  -0.231251  -0.078171
     12      -0.016832  -0.127044  -0.041905  -0.166336   0.446225  -0.648650
     13       0.027212   0.090246  -0.265291   0.252029   0.005481  -0.050795
     14       0.031100   0.066239  -0.362072   0.287517  -0.191434  -0.040087
     15       0.025142  -0.040778  -0.276062  -0.277541   0.464051   0.378692
     16       0.014914  -0.000335  -0.089522   0.007954  -0.099629  -0.009360
     17      -0.041576  -0.212507   0.243574  -0.423264  -0.415245   0.033733
     18       0.001698   0.102668   0.080995   0.017277  -0.002213  -0.000283
     19      -0.003215   0.022574  -0.111599   0.077542   0.040569  -0.089183
     20       0.004153   0.008932   0.099897  -0.086845   0.016582   0.080656
     21      -0.001389   0.031046   0.039584   0.008534  -0.044182  -0.000409
     22       0.010156  -0.062530  -0.025711  -0.040212   0.012457   0.016539
     23      -0.013393  -0.066288  -0.085985  -0.009796   0.017117  -0.013612
     24      -0.005727   0.005929   0.010327   0.011322   0.010489   0.001402
     25      -0.039257   0.082092   0.102780   0.044375  -0.023993   0.012287
     26       0.034126   0.098939   0.093037   0.090019  -0.023623  -0.015374
     27      -0.002978  -0.117699  -0.067912   0.014770   0.008198  -0.011362
     28       0.753802  -0.132488   0.095403   0.067722  -0.002760  -0.042488
     29      -0.609391  -0.007894  -0.070875   0.077903  -0.034766   0.000721
                 18         19         20         21         22         23    
      0      -0.013876  -0.007066  -0.037047   0.038415  -0.010598  -0.065569
      1      -0.022274  -0.068178   0.023895  -0.024982   0.001389   0.004085
      2       0.021570   0.037282  -0.024634   0.005096  -0.008667   0.046263
      3       0.053690   0.139865  -0.115008   0.062930  -0.044156   0.318200
      4       0.076844  -0.021227   0.074179  -0.065746   0.005544   0.351335
      5      -0.031979  -0.270177   0.221817  -0.101103   0.074947  -0.512976
      6      -0.021869  -0.150670   0.118102  -0.151266  -0.018537   0.668240
      7       0.082228   0.191554  -0.091645   0.103076  -0.004476  -0.226585
      8       0.138657   0.303920  -0.116862   0.101996  -0.018906  -0.026032
      9       0.056584   0.058499   0.154508  -0.142873   0.033240  -0.011166
     10       0.045679   0.045589  -0.036353  -0.004510  -0.026515  -0.018085
     11       0.006644  -0.055574  -0.005588  -0.049607  -0.076879  -0.016585
     12       0.185638   0.254622  -0.650098   0.357169  -0.027968  -0.012527
     13      -0.092154  -0.131158  -0.048920   0.182691   0.574081   0.044440
     14      -0.122249  -0.234615   0.144543  -0.014849   0.394120   0.028521
     15       0.074929  -0.720565  -0.489481   0.096159   0.003450   0.036615
     16       0.021870   0.048491   0.065716  -0.116425  -0.248831  -0.038017
     17       0.071156   0.242986  -0.093007   0.206981   0.656615   0.005779
     18      -0.115048   0.009470   0.045006   0.148347  -0.025080   0.007444
     19      -0.102744   0.021495   0.026199   0.137980  -0.020720   0.005747
     20      -0.134106  -0.006214   0.051824   0.163577  -0.027155   0.010012
     21       0.070263  -0.026559  -0.019540   0.006734  -0.000133  -0.002224
     22      -0.034707   0.010942   0.000214  -0.031757   0.003985  -0.000295
     23      -0.039728   0.016584  -0.003762  -0.035893   0.003254  -0.001044
     24      -0.055940   0.015570  -0.037794  -0.090022   0.010435  -0.001859
     25       0.059746  -0.002047  -0.027563  -0.079619   0.010886  -0.002508
     26       0.071387   0.001037  -0.036679  -0.099978   0.015297  -0.003871
     27       0.369733  -0.060544   0.183953   0.357926  -0.026252   0.009751
     28       0.503274  -0.080800   0.223711   0.420936  -0.018836   0.003558
     29       0.660987  -0.103607   0.276771   0.534674  -0.041143   0.018169
                 24         25         26         27         28         29    
      0      -0.001857  -0.000288   0.000124  -0.046911  -0.042743  -0.001002
      1       0.001211  -0.000169  -0.001848  -0.026444   0.052623  -0.000540
      2      -0.000796  -0.000788   0.001632   0.024083  -0.045565  -0.000325
      3      -0.006533   0.004790  -0.003547   0.493772   0.705930   0.012044
      4       0.011055  -0.002997   0.000331  -0.226982  -0.288912  -0.005411
      5       0.017718   0.006815  -0.003151   0.206508   0.284157   0.003874
      6      -0.008068  -0.003766  -0.003137   0.144308  -0.119900   0.002149
      7       0.001343   0.000224   0.012869   0.611428  -0.437269   0.008144
      8      -0.010706  -0.001955  -0.006827  -0.513333   0.353502  -0.005751
      9      -0.064501   0.017466  -0.001858   0.000670   0.000015  -0.000311
     10       0.016207   0.023119   0.090364  -0.002215   0.000443   0.000514
     11       0.014969   0.064471  -0.030306  -0.002111  -0.001020   0.000945
     12       0.059767  -0.107233   0.118473   0.001582   0.002773   0.001130
     13       0.014974   0.415645  -0.419025   0.001888  -0.006863   0.000326
     14      -0.018195  -0.545012   0.568358  -0.003575   0.011028  -0.001133
     15       0.190904  -0.079200  -0.083241   0.002354   0.000005   0.002792
     16      -0.050393  -0.680753  -0.652266   0.008163  -0.004543  -0.002260
     17       0.001605  -0.209448  -0.213592  -0.000822  -0.001571  -0.002492
     18       0.573407  -0.002492  -0.001088   0.000142   0.000370   0.001452
     19      -0.321143   0.000721   0.001360   0.000209   0.000012  -0.002408
     20      -0.362275   0.000475   0.000466   0.000420  -0.000161  -0.003051
     21      -0.353070   0.000772   0.000412   0.000030  -0.000024  -0.000730
     22       0.196330  -0.000466  -0.000513  -0.000066   0.000029   0.001167
     23       0.222721  -0.000450  -0.000343  -0.000096   0.000025   0.001419
     24      -0.054355  -0.000108  -0.000119  -0.000834  -0.000239   0.054277
     25       0.018748  -0.000126  -0.000034   0.000285   0.000112  -0.018997
     26       0.021083  -0.000142  -0.000237   0.000331   0.000135  -0.023232
     27       0.192430   0.000455   0.000176   0.012937   0.004737  -0.867686
     28       0.226004  -0.004437  -0.000487  -0.006617  -0.001314   0.312274
     29       0.289372  -0.003922  -0.002690  -0.007014  -0.002406   0.381341


-----------
IR SPECTRUM
-----------

 Mode   freq       eps      Int      T**2         TX        TY        TZ
       cm**-1   L/(mol*cm) km/mol    a.u.
----------------------------------------------------------------------------
  6:    107.76   0.001074    5.43  0.003111  ( 0.036078  0.030970 -0.029167)
  7:    291.09   0.003075   15.54  0.003297  ( 0.038332 -0.036348  0.022494)
  8:    338.00   0.003890   19.66  0.003591  ( 0.055057  0.001976  0.023580)
  9:    552.52   0.001213    6.13  0.000685  (-0.011023 -0.023696 -0.001436)
 10:    611.12   0.003309   16.72  0.001690  (-0.019691  0.025868 -0.025153)
 11:    720.58   0.002942   14.87  0.001274  (-0.021879  0.000891  0.028186)
 12:    793.19   0.027135  137.13  0.010676  ( 0.000433  0.089230 -0.052090)
 13:    908.98   0.009967   50.37  0.003422  ( 0.013169  0.035730  0.044403)
 14:    966.52   0.014050   71.00  0.004536  ( 0.005568 -0.052566 -0.041739)
 15:   1044.80   0.013356   67.50  0.003989  (-0.007491 -0.031840 -0.054031)
 16:   1179.69   0.003418   17.28  0.000904  ( 0.023587 -0.005440 -0.017841)
 17:   1260.67   0.001114    5.63  0.000276  ( 0.002126 -0.015739  0.004842)
 18:   1342.70   0.000550    2.78  0.000128  ( 0.006802  0.009035 -0.000019)
 19:   1431.54   0.002872   14.51  0.000626  ( 0.012815 -0.005035 -0.020892)
 20:   1498.86   0.016152   81.63  0.003363  ( 0.038951  0.030328  0.030430)
 21:   1557.35   0.092782  468.88  0.018592  ( 0.040688  0.078983  0.103431)
 22:   1582.94   0.001414    7.15  0.000279  ( 0.008422 -0.011921 -0.008111)
 23:   1781.90   0.008270   41.79  0.001448  ( 0.035266  0.012827 -0.006332)
 24:   2079.97   0.087669  443.04  0.013153  ( 0.092685 -0.045509 -0.049916)
 25:   3212.41   0.003297   16.66  0.000320  (-0.003066  0.007951  0.015736)
 26:   3266.35   0.002713   13.71  0.000259  ( 0.001491  0.016019 -0.000570)
 27:   3758.07   0.002603   13.15  0.000216  ( 0.012975  0.005743 -0.003847)
 28:   3843.97   0.004498   22.73  0.000365  ( 0.010351 -0.012336  0.010288)
 29:   4034.48   0.049928  252.32  0.003862  (-0.055613  0.016073  0.022599)

* The epsilon (eps) is given for a Dirac delta lineshape.
** The dipole moment derivative (T) already includes vibrational overlap.

The first frequency considered to be a vibration is 6
The total number of vibrations considered is 24


--------------------------
THERMOCHEMISTRY AT 298.15K
--------------------------

Temperature         ...   298.15 K
Pressure            ...     1.00 atm
Total Mass          ...    75.07 AMU
Quasi RRHO          ...     True
Cut-Off Frequency   ...     1.00 cm^-1

Throughout the following assumptions are being made:
  (1) The electronic state is orbitally nondegenerate
  (2) There are no thermally accessible electronically excited states
  (3) Hindered rotations indicated by low frequency modes are not
      treated as such but are treated as vibrations and this may
      cause some error
  (4) All equations used are the standard statistical mechanics
      equations for an ideal gas
  (5) All vibrations are strictly harmonic

freq.     107.76  E(vib)   ...       0.45 
freq.     291.09  E(vib)   ...       0.27 
freq.     338.00  E(vib)   ...       0.24 
freq.     552.52  E(vib)   ...       0.12 
freq.     611.12  E(vib)   ...       0.10 
freq.     720.58  E(vib)   ...       0.07 
freq.     793.19  E(vib)   ...       0.05 
freq.     908.98  E(vib)   ...       0.03 
freq.     966.52  E(vib)   ...       0.03 
freq.    1044.80  E(vib)   ...       0.02 
freq.    1179.69  E(vib)   ...       0.01 
freq.    1260.67  E(vib)   ...       0.01 
freq.    1342.70  E(vib)   ...       0.01 
freq.    1431.54  E(vib)   ...       0.00 
freq.    1498.86  E(vib)   ...       0.00 
freq.    1557.35  E(vib)   ...       0.00 
freq.    1582.94  E(vib)   ...       0.00 
freq.    1781.90  E(vib)   ...       0.00 
freq.    2079.97  E(vib)   ...       0.00 
freq.    3212.41  E(vib)   ...       0.00 
freq.    3266.35  E(vib)   ...       0.00 
freq.    3758.07  E(vib)   ...       0.00 
freq.    3843.97  E(vib)   ...       0.00 
freq.    4034.48  E(vib)   ...       0.00 

------------
INNER ENERGY
------------

The inner energy is: U= E(el) + E(ZPE) + E(vib) + E(rot) + E(trans)
    E(el)   - is the total energy from the electronic structure calculation
              = E(kin-el) + E(nuc-el) + E(el-el) + E(nuc-nuc)
    E(ZPE)  - the the zero temperature vibrational energy from the frequency calculation
    E(vib)  - the the finite temperature correction to E(ZPE) due to population
              of excited vibrational states
    E(rot)  - is the rotational thermal energy
    E(trans)- is the translational thermal energy

Summary of contributions to the inner energy U:
Electronic energy                ...   -282.61977991 Eh
Zero point energy                ...      0.08694736 Eh      54.56 kcal/mol
Thermal vibrational correction   ...      0.00223971 Eh       1.41 kcal/mol
Thermal rotational correction    ...      0.00141627 Eh       0.89 kcal/mol
Thermal translational correction ...      0.00141627 Eh       0.89 kcal/mol
-----------------------------------------------------------------------
Total thermal energy                   -282.52776029 Eh


Summary of corrections to the electronic energy:
(perhaps to be used in another calculation)
Total thermal correction                  0.00507226 Eh       3.18 kcal/mol
Non-thermal (ZPE) correction              0.08694736 Eh      54.56 kcal/mol
-----------------------------------------------------------------------
Total correction                          0.09201962 Eh      57.74 kcal/mol


--------
ENTHALPY
--------

The enthalpy is H = U + kB*T
                kB is Boltzmann's constant
Total thermal energy              ...   -282.52776029 Eh 
Thermal Enthalpy correction       ...      0.00094421 Eh       0.59 kcal/mol
-----------------------------------------------------------------------
Total Enthalpy                    ...   -282.52681608 Eh


Note: Only C1 symmetry has been detected, increase convergence thresholds 
      if your molecule has a higher symmetry. Symmetry factor of 1.0 is   
      used for the rotational entropy correction. 
 

Note: Rotational entropy computed according to Herzberg 
Infrared and Raman Spectra, Chapter V,1, Van Nostrand Reinhold, 1945 
Point Group:  C1, Symmetry Number:   1  
Rotational constants in cm-1:     0.342126     0.138035     0.102804 

Vibrational entropy computed according to the QRRHO of S. Grimme
Chem.Eur.J. 2012 18 9955 using a reference frequency of 100.0 cm-1


-------
ENTROPY
-------

The entropy contributions are T*S = T*(S(el)+S(vib)+S(rot)+S(trans))
     S(el)   - electronic entropy
     S(vib)  - vibrational entropy
     S(rot)  - rotational entropy
     S(trans)- translational entropy
The entropies will be listed as multiplied by the temperature to get
units of energy

Electronic entropy                ...      0.00000000 Eh      0.00 kcal/mol
Vibrational entropy               ...      0.00366661 Eh      2.30 kcal/mol
Rotational entropy                ...      0.01202599 Eh      7.55 kcal/mol
Translational entropy             ...      0.01846507 Eh     11.59 kcal/mol
-----------------------------------------------------------------------
Final entropy term                ...      0.03415768 Eh     21.43 kcal/mol

In case the symmetry of your molecule has not been determined correctly
or in case you have a reason to use a different symmetry number we print 
out the resulting rotational entropy values for sn=1,12:

 non-linear molecules -----------------------------------
|  sn= 1 | S(rot)=       0.01202599 Eh      7.55 kcal/mol|
|  sn= 2 | S(rot)=       0.01137154 Eh      7.14 kcal/mol|
|  sn= 3 | S(rot)=       0.01098870 Eh      6.90 kcal/mol|
|  sn= 4 | S(rot)=       0.01071708 Eh      6.73 kcal/mol|
|  sn= 5 | S(rot)=       0.01050639 Eh      6.59 kcal/mol|
|  sn= 6 | S(rot)=       0.01033425 Eh      6.48 kcal/mol|
|  sn= 7 | S(rot)=       0.01018870 Eh      6.39 kcal/mol|
|  sn= 8 | S(rot)=       0.01006262 Eh      6.31 kcal/mol|
|  sn= 9 | S(rot)=       0.00995142 Eh      6.24 kcal/mol|
|  sn=10 | S(rot)=       0.00985194 Eh      6.18 kcal/mol|
|  sn=11 | S(rot)=       0.00976195 Eh      6.13 kcal/mol|
|  sn=12 | S(rot)=       0.00967979 Eh      6.07 kcal/mol|
 linear molecules ---------------------------------------
|  Dinfh | S(rot)=       0.00747376 Eh      4.69 kcal/mol|
|  Cinfv | S(rot)=       0.00812821 Eh      5.10 kcal/mol|
 --------------------------------------------------------


-------------------
GIBBS FREE ENERGY
-------------------

The Gibbs free energy is G = H - T*S

Total enthalpy                    ...   -282.52681608 Eh 
Total entropy correction          ...     -0.03415768 Eh    -21.43 kcal/mol
-----------------------------------------------------------------------
Final Gibbs free energy         ...   -282.56097376 Eh

For completeness - the Gibbs free energy minus the electronic energy
G-E(el)                           ...      0.05880615 Eh     36.90 kcal/mol


Maximum memory used throughout the entire PROP-calculation: 25.3 MB

--------------------------------
SUGGESTED CITATIONS FOR THIS RUN
--------------------------------

Below you find a list of papers that are relevant to this ORCA run
We neither can nor want to force you to cite these papers, but we appreciate if you do
You receive ORCA, which is the product of decades of hard work by many enthusiastic individuals, for free
The only thing we kindly ask in return is that you cite our papers,
We deeply appreciate it, if you show your appreciation for ORCA by not just citing the generic ORCA reference.

Please note that relegating all ORCA citations to the supporting information does *not* help us.
SI sections are not indexed - citations you put there will not count into any citation statistics
But we need these citations in order to attract the funding resources that allow us to do what we are doing

Therefore, if you are a happy ORCA user, please consider citing a few of the papers listed below in the main body of your paper

In addition to the list printed below, the program has created the file glycine.bibtex that contains the list in bibtex format
You can import this file easily into all common literature databanks and citation aid programs


List of essential papers. We consider these as the minimum necessary citations

  1. Neese, F.
     Software update: the ORCA program system, version 6.0
     WIRES Comput. Molec. Sci. 2025 15(1), e70019
     doi.org/10.1002/wcms.7019

List of papers to cite with high priority. The work reported in these papers was absolutely
necessary for this run to complete.
Our perspective: the developers of density functionals and basis sets usually get cited in chemistry papers
Good! But without the algorithms to do something with them, the functionals or basis sets would not do anything.
Hence, in our opinion, the algorithm design and method developments papers are equally worthy of getting cited

  1. Bykov, D.; Petrenko, T.; Izsak, R.; Kossmann, S.; Becker, U.; Valeev, E.; Neese, F.
     Efficient implementation of the analytic second derivatives of Hartree-Fock and hybrid DFT energies: a detailed analysis of different approximations
     Molec. Phys. 2015 113 , 1961-1977
     doi.org/10.1080/00268976.2015.1025114
  2. Neese, F.
     The SHARK Integral Generation and Digestion System
     J. Comp. Chem. 2022 44(3), 381
     doi.org/10.1002/jcc.26942

List of suggested additional citations. These are papers that are important in the 'surrounding' of 
of this run, or papers that preceded the highly important papers. If you like your results we are grateful for a citation.

  1. Neese, F.
     The ORCA program system
     WIRES Comput. Molec. Sci. 2012 2(1), 73-78
     doi.org/10.1002/wcms.81
  2. Neese, F.
     Software update: the ORCA program system, version 4.0
     WIRES Comput. Molec. Sci. 2018 8(1), 1-6
     doi.org/10.1002/wcms.1327
  3. Neese, F.; Wennmohs, F.; Becker, U.; Riplinger, C.
     The ORCA quantum chemistry program package
     J. Chem. Phys. 2020 152(22), 224108
     doi.org/10.1063/5.0004608
  4. Neese, F.
     Software update: The ORCA program system—Version 5.0
     WIRES Comput. Molec. Sci. 2022 12(1), e1606
     doi.org/10.1002/wcms.1606

List of optional additional citations

  1. Neese, F.
     Approximate second-order SCF convergence for spin unrestricted wavefunctions
     Chem. Phys. Lett. 2000 325(1-3), 93-98
     doi.org/10.1016/s0009-2614(00)00662-x

Timings for individual modules:

Sum of individual times          ...      186.350 sec (=   3.106 min)
Startup calculation              ...        8.636 sec (=   0.144 min)   4.6 %
SCF iterations                   ...      108.635 sec (=   1.811 min)  58.3 %
Property integrals               ...        3.848 sec (=   0.064 min)   2.1 %
SCF Response                     ...       12.696 sec (=   0.212 min)   6.8 %
Property calculations            ...        7.719 sec (=   0.129 min)   4.1 %
SCF Gradient evaluation          ...       44.605 sec (=   0.743 min)  23.9 %
Geometry relaxation              ...        0.210 sec (=   0.004 min)   0.1 %
                             ****ORCA TERMINATED NORMALLY****
TOTAL RUN TIME: 0 days 0 hours 3 minutes 7 seconds 482 msec
